 Gaussian 16, Revision A.03,
 Gaussian 16:  ES64L-G16RevA.03 25-Dec-2016

 ----------------------------------------------------------------------
 # pop=nbo M062X/6-311g(d) scrf=(smd,solvent=generic,read) temperature=
 298.15 Geom=Check Guess=Read
 ----------------------------------------------------------------------

 ----------
 Reagente 1
 ----------
 Structure from the checkpoint file:  "CURCUMIN-Prod-2-M062X-6-311G-D-298-NBO.chk"
 Charge =  0 Multiplicity = 2

                         Standard orientation:
 ---------------------------------------------------------------------
 Center     Atomic      Atomic             Coordinates (Angstroms)
 Number     Number       Type             X           Y           Z
 ---------------------------------------------------------------------
      1          6           0        2.694394    0.351131    0.300052
      2          1           0        2.449758    1.168149    0.974142
      3          6           0        1.748416   -0.139429   -0.514174
      4          1           0        1.970786   -0.925593   -1.229254
      5          6           0        0.367286    0.369755   -0.628557
      6          8           0       -0.341365    0.013663   -1.564234
      7          6           0        4.090140   -0.078229    0.372310
      8          6           0        4.967477    0.629169    1.197310
      9          6           0        4.595427   -1.165990   -0.357938
     10          6           0        6.308472    0.277868    1.286205
     11          1           0        4.599818    1.474431    1.769446
     12          6           0        5.926399   -1.524099   -0.278876
     13          1           0        3.960639   -1.751681   -1.013804
     14          6           0        6.799941   -0.793893    0.549935
     15          1           0        6.982991    0.843024    1.922341
     16          8           0        8.095330   -1.179784    0.575076
     17          1           0        8.598310   -0.603227    1.164689
     18          8           0        6.398534   -2.559404   -1.031706
     19          6           0        6.700356   -3.730889   -0.274411
     20          1           0        5.801981   -4.100662    0.228707
     21          1           0        7.050846   -4.476750   -0.985651
     22          1           0        7.481851   -3.534275    0.461779
     23          6           0       -2.887170    0.169572    0.193326
     24          1           0       -2.026106   -0.466184    0.383184
     25          6           0       -2.687724    1.491776    0.044758
     26          1           0       -3.498081    2.190373   -0.135397
     27          6           0       -1.377477    2.109598    0.169146
     28          8           0       -1.256138    3.334516    0.151973
     29          6           0       -4.159692   -0.535854    0.132950
     30          6           0       -4.163252   -1.925777    0.285300
     31          6           0       -5.388535    0.116644   -0.066480
     32          6           0       -5.346794   -2.648853    0.232210
     33          1           0       -3.225206   -2.448052    0.440248
     34          6           0       -6.570958   -0.591250   -0.123264
     35          1           0       -5.447304    1.192068   -0.192299
     36          6           0       -6.555830   -1.992463    0.025920
     37          1           0       -5.336589   -3.729202    0.342244
     38          8           0       -7.742346   -2.630731   -0.051136
     39          1           0       -7.613486   -3.582071    0.057815
     40          8           0       -7.745879    0.059975   -0.357996
     41          6           0       -8.586350    0.160418    0.791814
     42          1           0       -8.078620    0.715228    1.586238
     43          1           0       -9.474656    0.705746    0.478256
     44          1           0       -8.875047   -0.827025    1.156661
     45          6           0       -0.140113    1.307538    0.370505
     46          1           0        0.449062    1.573141    1.239628
     47          1           0        0.340899    3.972819    0.158710
     48          8           0        1.306070    4.180036    0.130444
     49          8           0        2.952620    3.506381   -0.986472
     50          7           0        1.792440    3.381725   -0.854790
 ---------------------------------------------------------------------

 SCF Done:  E(UM062X) =  -1468.40408602     A.U. after    1 cycles

 The electronic state is 2-A.
 Alpha  occ. eigenvalues --  -19.68080 -19.67165 -19.66269 -19.65910 -19.63670
 Alpha  occ. eigenvalues --  -19.63508 -19.63425 -19.61278 -14.92500 -10.65286
 Alpha  occ. eigenvalues --  -10.63585 -10.62060 -10.61606 -10.60325 -10.60072
 Alpha  occ. eigenvalues --  -10.58859 -10.57509 -10.57434 -10.57329 -10.56677
 Alpha  occ. eigenvalues --  -10.55982 -10.55695 -10.55604 -10.55304 -10.55189
 Alpha  occ. eigenvalues --  -10.55137 -10.54928 -10.54911 -10.54852 -10.54669
 Alpha  occ. eigenvalues --   -1.35385  -1.20888  -1.20514  -1.19236  -1.17657
 Alpha  occ. eigenvalues --   -1.17442  -1.17436  -1.17083  -0.97789  -0.97431
 Alpha  occ. eigenvalues --   -0.92344  -0.91284  -0.87705  -0.86114  -0.85811
 Alpha  occ. eigenvalues --   -0.84668  -0.82588  -0.78149  -0.77973  -0.77520
 Alpha  occ. eigenvalues --   -0.75879  -0.74826  -0.71923  -0.70760  -0.67484
 Alpha  occ. eigenvalues --   -0.67070  -0.65768  -0.65232  -0.63725  -0.63293
 Alpha  occ. eigenvalues --   -0.61227  -0.59772  -0.59199  -0.58967  -0.58911
 Alpha  occ. eigenvalues --   -0.58177  -0.57942  -0.56144  -0.55397  -0.55002
 Alpha  occ. eigenvalues --   -0.54306  -0.54148  -0.54092  -0.52905  -0.51809
 Alpha  occ. eigenvalues --   -0.51234  -0.50902  -0.50451  -0.50037  -0.49964
 Alpha  occ. eigenvalues --   -0.49675  -0.49080  -0.48905  -0.48427  -0.47435
 Alpha  occ. eigenvalues --   -0.47278  -0.45114  -0.44723  -0.44408  -0.44097
 Alpha  occ. eigenvalues --   -0.43906  -0.43824  -0.43191  -0.42900  -0.41144
 Alpha  occ. eigenvalues --   -0.40759  -0.40495  -0.36832  -0.36012  -0.35706
 Alpha  occ. eigenvalues --   -0.35293  -0.35140  -0.34131  -0.33704  -0.31557
 Alpha  occ. eigenvalues --   -0.31059  -0.30732  -0.27300  -0.26758
 Alpha virt. eigenvalues --   -0.05414  -0.03162  -0.00952   0.01929   0.02247
 Alpha virt. eigenvalues --    0.04244   0.06056   0.07248   0.07396   0.08758
 Alpha virt. eigenvalues --    0.09584   0.10031   0.10356   0.10593   0.11455

  Beta  occ. eigenvalues --  -19.68077 -19.67152 -19.66269 -19.65910 -19.63670
  Beta  occ. eigenvalues --  -19.63508 -19.63288 -19.60907 -14.92471 -10.65347
  Beta  occ. eigenvalues --  -10.63682 -10.62060 -10.61606 -10.60325 -10.60072
  Beta  occ. eigenvalues --  -10.58321 -10.57501 -10.57434 -10.57329 -10.56679
  Beta  occ. eigenvalues --  -10.55981 -10.55694 -10.55603 -10.55303 -10.55189
  Beta  occ. eigenvalues --  -10.55137 -10.54928 -10.54900 -10.54852 -10.54661
  Beta  occ. eigenvalues --   -1.35364  -1.20887  -1.20512  -1.18846  -1.17657
  Beta  occ. eigenvalues --   -1.17442  -1.17304  -1.16122  -0.97778  -0.97423
  Beta  occ. eigenvalues --   -0.91862  -0.91149  -0.86332  -0.86080  -0.85804
  Beta  occ. eigenvalues --   -0.84569  -0.81522  -0.78148  -0.77972  -0.77479
  Beta  occ. eigenvalues --   -0.75799  -0.74709  -0.71839  -0.70639  -0.67427
  Beta  occ. eigenvalues --   -0.67008  -0.65574  -0.65135  -0.63698  -0.63270
  Beta  occ. eigenvalues --   -0.60770  -0.59521  -0.59105  -0.58952  -0.58801
  Beta  occ. eigenvalues --   -0.58106  -0.57547  -0.55960  -0.54882  -0.54821
  Beta  occ. eigenvalues --   -0.54304  -0.54109  -0.53805  -0.52729  -0.51372
  Beta  occ. eigenvalues --   -0.51190  -0.50872  -0.50343  -0.49918  -0.49709
  Beta  occ. eigenvalues --   -0.49491  -0.48830  -0.48398  -0.47846  -0.47068
  Beta  occ. eigenvalues --   -0.46482  -0.45053  -0.44612  -0.44335  -0.44006
  Beta  occ. eigenvalues --   -0.43865  -0.43701  -0.43169  -0.42741  -0.41028
  Beta  occ. eigenvalues --   -0.40750  -0.40470  -0.36272  -0.35496  -0.35277
  Beta  occ. eigenvalues --   -0.35245  -0.34930  -0.33828  -0.33010  -0.31112
  Beta  occ. eigenvalues --   -0.30787  -0.27242  -0.26746
  Beta virt. eigenvalues --   -0.08985  -0.05057  -0.01799  -0.00846   0.01959
  Beta virt. eigenvalues --    0.02305   0.04500   0.06864   0.07252   0.07422
  Beta virt. eigenvalues --    0.08916   0.09579   0.10099   0.10383   0.10744

 Mulliken charges and spin densities:
               1          2
     1  C   -0.247145  -0.007913
     2  H    0.270372   0.000887
     3  C   -0.323891   0.018769
     4  H    0.262021  -0.002206
     5  C    0.318799  -0.121700
     6  O   -0.362414   0.205184
     7  C   -0.016277   0.001827
     8  C   -0.245957   0.000396
     9  C   -0.235175  -0.000026
    10  C   -0.282176   0.000072
    11  H    0.260667  -0.000058
    12  C    0.172276  -0.000050
    13  H    0.265893   0.000134
    14  C    0.242291   0.000655
    15  H    0.269355  -0.000012
    16  O   -0.595604   0.000288
    17  H    0.441812  -0.000012
    18  O   -0.383346   0.000017
    19  C   -0.502517  -0.000006
    20  H    0.227492  -0.000000
    21  H    0.243502  -0.000000
    22  H    0.246192   0.000002
    23  C   -0.193449   0.004806
    24  H    0.279761  -0.006967
    25  C   -0.347736   0.016297
    26  H    0.268729  -0.000443
    27  C    0.422492  -0.081014
    28  O   -0.435559   0.055128
    29  C   -0.036776  -0.001985
    30  C   -0.231789   0.000711
    31  C   -0.228794   0.000690
    32  C   -0.281731  -0.000113
    33  H    0.265078   0.000191
    34  C    0.170570  -0.000230
    35  H    0.269728   0.000129
    36  C    0.247365   0.000578
    37  H    0.271371  -0.000004
    38  O   -0.591539   0.000165
    39  H    0.443585  -0.000007
    40  O   -0.382713   0.000004
    41  C   -0.502793  -0.000001
    42  H    0.229082  -0.000001
    43  H    0.244654   0.000001
    44  H    0.246294  -0.000002
    45  C   -0.415606   0.958992
    46  H    0.313886  -0.047882
    47  H    0.436440  -0.000515
    48  O   -0.471248   0.004854
    49  O   -0.217140  -0.000069
    50  N    0.201669   0.000437
 Sum of Mulliken charges =  -0.00000   1.00000

 Dipole moment (field-independent basis, Debye):
    X=             -1.3453    Y=             -7.1927    Z=              8.2953  Tot=             11.0615
 Quadrupole moment (field-independent basis, Debye-Ang):
   XX=           -121.3285   YY=           -166.9959   ZZ=           -179.3295
   XY=             12.9871   XZ=              9.7288   YZ=              1.7452

 Summary of Natural Population Analysis:

                                       Natural Population
                Natural  -----------------------------------------------
    Atom  No    Charge         Core      Valence    Rydberg      Total
 -----------------------------------------------------------------------
      C    1   -0.06587      0.99953     2.05771    0.00864     3.06587
      H    2    0.10501      0.00000     0.39298    0.00201     0.39499
      C    3   -0.13618      0.99951     2.12749    0.00918     3.13618
      H    4    0.11108      0.00000     0.38733    0.00159     0.38892
      C    5    0.18276      0.99961     1.79836    0.01928     2.81724
      O    6   -0.18331      0.99990     3.17877    0.00464     4.18331
      C    7   -0.05930      0.99950     2.05199    0.00780     3.05930
      C    8   -0.08447      0.99955     2.07730    0.00762     3.08447
      C    9   -0.10606      0.99950     2.09892    0.00765     3.10606
      C   10   -0.14419      0.99954     2.13669    0.00796     3.14419
      H   11    0.11220      0.00000     0.38692    0.00088     0.38780
      C   12    0.13518      0.99935     1.85338    0.01208     2.86482
      H   13    0.11677      0.00000     0.38193    0.00129     0.38323
      C   14    0.15890      0.99937     1.83062    0.01110     2.84110
      H   15    0.11477      0.00000     0.38407    0.00116     0.38523
      O   16   -0.34108      0.99988     3.33642    0.00479     4.34108
      H   17    0.24260      0.00000     0.25684    0.00057     0.25740
      O   18   -0.28674      0.99987     3.28083    0.00604     4.28674
      C   19   -0.09696      0.99961     2.08892    0.00843     3.09696
      H   20    0.08272      0.00000     0.41639    0.00089     0.41728
      H   21    0.09290      0.00000     0.40663    0.00047     0.40710
      H   22    0.08764      0.00000     0.41145    0.00091     0.41236
      C   23   -0.03450      0.99953     2.02657    0.00840     3.03450
      H   24    0.10814      0.00000     0.39038    0.00148     0.39186
      C   25   -0.15270      0.99950     2.14425    0.00894     3.15270
      H   26    0.11486      0.00000     0.38366    0.00148     0.38514
      C   27    0.24407      0.99961     1.73747    0.01885     2.75593
      O   28   -0.28287      0.99987     3.27797    0.00502     4.28287
      C   29   -0.06570      0.99950     2.05851    0.00769     3.06570
      C   30   -0.07871      0.99955     2.07158    0.00758     3.07871
      C   31   -0.10178      0.99950     2.09467    0.00761     3.10178
      C   32   -0.14525      0.99954     2.13775    0.00796     3.14525
      H   33    0.11319      0.00000     0.38597    0.00084     0.38681
      C   34    0.13457      0.99935     1.85398    0.01210     2.86543
      H   35    0.11765      0.00000     0.38107    0.00128     0.38235
      C   36    0.16339      0.99938     1.82608    0.01115     2.83661
      H   37    0.11550      0.00000     0.38335    0.00115     0.38450
      O   38   -0.33934      0.99988     3.33467    0.00480     4.33934
      H   39    0.24325      0.00000     0.25619    0.00056     0.25675
      O   40   -0.28654      0.99987     3.28063    0.00604     4.28654
      C   41   -0.09694      0.99961     2.08891    0.00843     3.09694
      H   42    0.08312      0.00000     0.41600    0.00088     0.41688
      H   43    0.09328      0.00000     0.40626    0.00047     0.40672
      H   44    0.08753      0.00000     0.41158    0.00089     0.41247
      C   45    0.34842      0.99957     1.64361    0.00840     2.65158
      H   46    0.09436      0.00000     0.40451    0.00114     0.40564
      H   47    0.24836      0.00000     0.24843    0.00322     0.25164
      O   48   -0.28432      0.99988     3.27801    0.00642     4.28432
      O   49   -0.15617      0.99990     3.14630    0.00996     4.15617
      N   50    0.17678      0.99990     2.29010    0.03323     3.32322
 =======================================================================
   * Total *    0.50000     29.98866    77.70038    0.31096   108.00000

 1\1\GINC-N02\SP\UM062X\6-311G(d)\C21H20N1O8(2)\UNKNOWN\02-Dec-2024\0\\
 # pop=nbo M062X/6-311g(d) scrf=(smd,solvent=generic,read) temperature=
 298.15 Geom=Check Guess=Read\\Reagente 1\\0,2\C,0,-2.7117248434,0.2866
 43621,-0.3406180544\H,0,-2.451000555,1.0193392308,-1.1001854062\C,0,-1
 .7751187761,-0.1310417024,0.5235555966\H,0,-2.012888062,-0.8290349686,
 1.3204960709\C,0,-0.3835440151,0.3587492606,0.5826723382\O,0,0.3187414
 901,0.0929818101,1.552540268\C,0,-4.1161977581,-0.1188895162,-0.366654
 3245\C,0,-4.9796774826,0.5116578028,-1.265303027\C,0,-4.6430803716,-1.

 Normal termination of Gaussian 16 at Mon Dec  2 13:18:44 2024.
