 Gaussian 16, Revision A.03,
 Gaussian 16:  ES64L-G16RevA.03 25-Dec-2016

 ----------------------------------------------------------------------
 # pop=nbo M062X/6-311g(d) scrf=(smd,solvent=generic,read) temperature=
 298.15 Geom=Check Guess=Read
 ----------------------------------------------------------------------

 ----------
 Reagente 1
 ----------
 Structure from the checkpoint file:  "CURCUMIN-TS-2-M062X-6-311G-D-298-NBO.chk"
 Charge =  0 Multiplicity = 2

                         Standard orientation:
 ---------------------------------------------------------------------
 Center     Atomic      Atomic             Coordinates (Angstroms)
 Number     Number       Type             X           Y           Z
 ---------------------------------------------------------------------
      1          6           0       -2.469110    0.440935    0.105840
      2          1           0       -2.070710    1.050209   -0.702075
      3          6           0       -1.750627    0.297379    1.231281
      4          1           0       -2.104745   -0.292446    2.070780
      5          6           0       -0.455159    0.948144    1.460069
      6          8           0        0.155760    0.814528    2.499568
      7          6           0       -3.779893   -0.132262   -0.175891
      8          6           0       -4.437759    0.247999   -1.348721
      9          6           0       -4.413187   -1.046668    0.681663
     10          6           0       -5.694044   -0.255936   -1.657279
     11          1           0       -3.966991    0.959465   -2.019718
     12          6           0       -5.661839   -1.553937    0.385478
     13          1           0       -3.944210   -1.376370    1.602457
     14          6           0       -6.315907   -1.155262   -0.797384
     15          1           0       -6.203381    0.054243   -2.564640
     16          8           0       -7.540842   -1.674245   -1.028332
     17          1           0       -7.894703   -1.327948   -1.857947
     18          8           0       -6.273652   -2.409640    1.253168
     19          6           0       -6.310732   -3.762440    0.798339
     20          1           0       -5.295137   -4.143545    0.656405
     21          1           0       -6.808405   -4.336560    1.577799
     22          1           0       -6.872377   -3.849831   -0.133431
     23          6           0        2.687138    0.376222    0.131561
     24          1           0        1.737945   -0.110249   -0.086819
     25          6           0        2.685776    1.653642    0.541733
     26          1           0        3.600313    2.182548    0.792297
     27          6           0        1.467076    2.455649    0.726220
     28          8           0        1.511220    3.590876    1.143979
     29          6           0        3.857090   -0.478235   -0.058306
     30          6           0        3.667441   -1.802134   -0.461334
     31          6           0        5.171185   -0.025284    0.142935
     32          6           0        4.747048   -2.656481   -0.645280
     33          1           0        2.661140   -2.172513   -0.625958
     34          6           0        6.251852   -0.865943   -0.031946
     35          1           0        5.378098    0.993720    0.451142
     36          6           0        6.042657   -2.201667   -0.427009
     37          1           0        4.587112   -3.686112   -0.951003
     38          8           0        7.136425   -2.983236   -0.564649
     39          1           0        6.873098   -3.873424   -0.831772
     40          8           0        7.514363   -0.411601    0.213012
     41          6           0        8.292821   -0.210662   -0.966631
     42          1           0        7.815789    0.529641   -1.615583
     43          1           0        9.260222    0.164616   -0.637756
     44          1           0        8.431139   -1.146064   -1.511804
     45          6           0        0.132278    1.823655    0.367449
     46          1           0        0.093009    1.389534   -0.633141
     47          1           0       -0.628639    2.780981    0.288604
     48          8           0       -1.492806    3.754321    0.007437
     49          8           0       -2.707120    4.242160   -1.616370
     50          7           0       -1.908569    3.463504   -1.221011
 ---------------------------------------------------------------------

 SCF Done:  E(UM062X) =  -1468.35528079     A.U. after    1 cycles

 The electronic state is 2-A.
 Alpha  occ. eigenvalues --  -19.72738 -19.69199 -19.66222 -19.66056 -19.63714
 Alpha  occ. eigenvalues --  -19.63584 -19.62512 -19.61721 -14.93957 -10.64760
 Alpha  occ. eigenvalues --  -10.64142 -10.62010 -10.61785 -10.60375 -10.60199
 Alpha  occ. eigenvalues --  -10.58344 -10.57476 -10.57410 -10.57365 -10.57024
 Alpha  occ. eigenvalues --  -10.56046 -10.55844 -10.55602 -10.55387 -10.55300
 Alpha  occ. eigenvalues --  -10.55189 -10.55154 -10.55077 -10.55012 -10.54739
 Alpha  occ. eigenvalues --   -1.37370  -1.20842  -1.20658  -1.19303  -1.18663
 Alpha  occ. eigenvalues --   -1.17683  -1.17537  -1.17534  -0.97836  -0.97602
 Alpha  occ. eigenvalues --   -0.92644  -0.91417  -0.88124  -0.86137  -0.85954
 Alpha  occ. eigenvalues --   -0.84670  -0.83033  -0.78195  -0.78050  -0.77187
 Alpha  occ. eigenvalues --   -0.75792  -0.74960  -0.71773  -0.70895  -0.67504
 Alpha  occ. eigenvalues --   -0.67087  -0.66363  -0.65245  -0.63643  -0.63385
 Alpha  occ. eigenvalues --   -0.61706  -0.60589  -0.60218  -0.59344  -0.59205
 Alpha  occ. eigenvalues --   -0.58793  -0.58176  -0.56243  -0.55428  -0.55143
 Alpha  occ. eigenvalues --   -0.54346  -0.54305  -0.54193  -0.52802  -0.51883
 Alpha  occ. eigenvalues --   -0.51598  -0.51185  -0.50991  -0.50257  -0.50016
 Alpha  occ. eigenvalues --   -0.49846  -0.49340  -0.48729  -0.48455  -0.48149
 Alpha  occ. eigenvalues --   -0.46720  -0.45092  -0.44907  -0.44405  -0.44182
 Alpha  occ. eigenvalues --   -0.44041  -0.43901  -0.43393  -0.43260  -0.42958
 Alpha  occ. eigenvalues --   -0.40783  -0.40644  -0.38216  -0.36145  -0.35718
 Alpha  occ. eigenvalues --   -0.35591  -0.35330  -0.35174  -0.34456  -0.33330
 Alpha  occ. eigenvalues --   -0.31156  -0.30947  -0.27331  -0.27065
 Alpha virt. eigenvalues --   -0.04635  -0.04171  -0.02211   0.01903   0.02065
 Alpha virt. eigenvalues --    0.04503   0.04996   0.07252   0.07294   0.08592
 Alpha virt. eigenvalues --    0.09850   0.10011   0.10265   0.10942   0.11113

  Beta  occ. eigenvalues --  -19.71497 -19.69175 -19.66220 -19.66056 -19.63714
  Beta  occ. eigenvalues --  -19.63584 -19.62377 -19.61709 -14.93945 -10.64790
  Beta  occ. eigenvalues --  -10.64159 -10.62009 -10.61785 -10.60375 -10.60198
  Beta  occ. eigenvalues --  -10.58017 -10.57476 -10.57409 -10.57364 -10.57021
  Beta  occ. eigenvalues --  -10.56045 -10.55844 -10.55601 -10.55387 -10.55299
  Beta  occ. eigenvalues --  -10.55183 -10.55154 -10.55077 -10.55012 -10.54721
  Beta  occ. eigenvalues --   -1.36414  -1.20838  -1.20659  -1.18422  -1.17682
  Beta  occ. eigenvalues --   -1.17537  -1.17424  -1.16167  -0.97827  -0.97597
  Beta  occ. eigenvalues --   -0.92288  -0.91369  -0.87322  -0.86133  -0.85951
  Beta  occ. eigenvalues --   -0.84630  -0.82563  -0.78194  -0.78050  -0.75894
  Beta  occ. eigenvalues --   -0.75653  -0.74812  -0.71731  -0.70733  -0.67317
  Beta  occ. eigenvalues --   -0.67034  -0.65107  -0.63840  -0.63366  -0.63264
  Beta  occ. eigenvalues --   -0.60563  -0.60033  -0.59623  -0.59222  -0.58983
  Beta  occ. eigenvalues --   -0.58310  -0.57728  -0.55974  -0.55068  -0.54968
  Beta  occ. eigenvalues --   -0.54334  -0.54230  -0.54188  -0.52545  -0.51588
  Beta  occ. eigenvalues --   -0.51210  -0.51021  -0.50575  -0.50126  -0.49931
  Beta  occ. eigenvalues --   -0.49627  -0.49112  -0.48668  -0.48332  -0.46677
  Beta  occ. eigenvalues --   -0.45172  -0.44931  -0.44659  -0.44307  -0.44062
  Beta  occ. eigenvalues --   -0.43868  -0.43691  -0.43233  -0.42943  -0.41521
  Beta  occ. eigenvalues --   -0.40757  -0.40633  -0.35901  -0.35577  -0.35481
  Beta  occ. eigenvalues --   -0.35207  -0.35130  -0.34130  -0.32929  -0.31148
  Beta  occ. eigenvalues --   -0.30946  -0.27250  -0.27033
  Beta virt. eigenvalues --   -0.15252  -0.04316  -0.04096  -0.02026   0.01927
  Beta virt. eigenvalues --    0.02066   0.04673   0.05178   0.07254   0.07295
  Beta virt. eigenvalues --    0.08682   0.09867   0.10030   0.10272   0.11033

 Mulliken charges and spin densities:
               1          2
     1  C   -0.254019  -0.003770
     2  H    0.292389   0.000563
     3  C   -0.345335   0.014545
     4  H    0.269709  -0.000993
     5  C    0.389749  -0.046242
     6  O   -0.337777   0.068629
     7  C   -0.001976   0.001375
     8  C   -0.245908   0.001215
     9  C   -0.225866   0.000467
    10  C   -0.282590  -0.000175
    11  H    0.260420  -0.000175
    12  C    0.170692  -0.000311
    13  H    0.268664   0.000037
    14  C    0.245712   0.001667
    15  H    0.271787  -0.000007
    16  O   -0.592732   0.000603
    17  H    0.443341  -0.000027
    18  O   -0.382904   0.000040
    19  C   -0.502709  -0.000016
    20  H    0.228420  -0.000001
    21  H    0.244729  -0.000001
    22  H    0.246568  -0.000000
    23  C   -0.222789  -0.002925
    24  H    0.279040  -0.001565
    25  C   -0.341419   0.014955
    26  H    0.264553   0.001688
    27  C    0.398158  -0.023405
    28  O   -0.341287   0.006876
    29  C   -0.023677  -0.000441
    30  C   -0.241179  -0.000590
    31  C   -0.233178  -0.000296
    32  C   -0.282246   0.000318
    33  H    0.261562  -0.000013
    34  C    0.171395   0.000264
    35  H    0.268032   0.000003
    36  C    0.243297  -0.000595
    37  H    0.269475  -0.000008
    38  O   -0.594372  -0.000101
    39  H    0.442166   0.000005
    40  O   -0.383075   0.000025
    41  C   -0.502806   0.000003
    42  H    0.228598   0.000003
    43  H    0.244136   0.000000
    44  H    0.246192   0.000001
    45  C   -0.724377   0.458957
    46  H    0.339944  -0.018806
    47  H    0.328607  -0.045557
    48  O   -0.229827   0.578437
    49  O   -0.234565  -0.006355
    50  N    0.209276   0.001700
 Sum of Mulliken charges =   0.00000   1.00000

 Dipole moment (field-independent basis, Debye):
    X=             -1.0727    Y=             -9.7506    Z=             -8.8295  Tot=             13.1979
 Quadrupole moment (field-independent basis, Debye-Ang):
   XX=           -141.5619   YY=           -177.7582   ZZ=           -178.7729
   XY=             -2.2148   XZ=              1.5423   YZ=              0.6672

 Summary of Natural Population Analysis:

                                       Natural Population
                Natural  -----------------------------------------------
    Atom  No    Charge         Core      Valence    Rydberg      Total
 -----------------------------------------------------------------------
      C    1   -0.05548      0.99953     2.04793    0.00802     3.05548
      H    2    0.10613      0.00000     0.39146    0.00241     0.39387
      C    3   -0.14997      0.99950     2.14149    0.00898     3.14997
      H    4    0.11454      0.00000     0.38396    0.00150     0.38546
      C    5    0.25743      0.99962     1.72304    0.01991     2.74257
      O    6   -0.24373      0.99989     3.23884    0.00501     4.24373
      C    7   -0.06225      0.99950     2.05496    0.00778     3.06225
      C    8   -0.08179      0.99955     2.07465    0.00758     3.08179
      C    9   -0.10398      0.99950     2.09682    0.00766     3.10398
      C   10   -0.14426      0.99954     2.13675    0.00797     3.14426
      H   11    0.11276      0.00000     0.38616    0.00108     0.38724
      C   12    0.13525      0.99935     1.85330    0.01209     2.86475
      H   13    0.11749      0.00000     0.38123    0.00128     0.38251
      C   14    0.16223      0.99938     1.82725    0.01114     2.83777
      H   15    0.11561      0.00000     0.38323    0.00115     0.38439
      O   16   -0.33964      0.99988     3.33497    0.00480     4.33964
      H   17    0.24315      0.00000     0.25629    0.00056     0.25685
      O   18   -0.28645      0.99987     3.28054    0.00604     4.28645
      C   19   -0.09693      0.99961     2.08889    0.00842     3.09693
      H   20    0.08295      0.00000     0.41617    0.00088     0.41705
      H   21    0.09330      0.00000     0.40624    0.00047     0.40670
      H   22    0.08766      0.00000     0.41145    0.00090     0.41234
      C   23   -0.05601      0.99953     2.04847    0.00801     3.05601
      H   24    0.10574      0.00000     0.39297    0.00129     0.39426
      C   25   -0.14743      0.99949     2.13910    0.00884     3.14743
      H   26    0.11432      0.00000     0.38408    0.00159     0.38568
      C   27    0.27588      0.99963     1.70275    0.02174     2.72412
      O   28   -0.27769      0.99989     3.27272    0.00508     4.27769
      C   29   -0.06141      0.99950     2.05415    0.00776     3.06141
      C   30   -0.08406      0.99955     2.07692    0.00759     3.08406
      C   31   -0.10502      0.99950     2.09788    0.00764     3.10502
      C   32   -0.14455      0.99954     2.13706    0.00795     3.14455
      H   33    0.11219      0.00000     0.38696    0.00085     0.38781
      C   34    0.13540      0.99935     1.85316    0.01209     2.86460
      H   35    0.11729      0.00000     0.38143    0.00129     0.38271
      C   36    0.15933      0.99937     1.83018    0.01112     2.84067
      H   37    0.11485      0.00000     0.38400    0.00116     0.38515
      O   38   -0.34080      0.99988     3.33613    0.00480     4.34080
      H   39    0.24273      0.00000     0.25671    0.00056     0.25727
      O   40   -0.28662      0.99987     3.28072    0.00604     4.28662
      C   41   -0.09701      0.99961     2.08898    0.00843     3.09701
      H   42    0.08303      0.00000     0.41608    0.00088     0.41697
      H   43    0.09309      0.00000     0.40644    0.00047     0.40691
      H   44    0.08760      0.00000     0.41150    0.00090     0.41240
      C   45   -0.01835      0.99949     2.01096    0.00791     3.01835
      H   46    0.12435      0.00000     0.37486    0.00080     0.37565
      H   47    0.14074      0.00000     0.35595    0.00331     0.35926
      O   48    0.14036      0.99994     2.85335    0.00636     3.85964
      O   49   -0.15971      0.99990     3.15044    0.00937     4.15971
      N   50    0.16777      0.99988     2.30005    0.03230     3.33223
 =======================================================================
   * Total *    0.50000     29.98863    77.69962    0.31176   108.00000

 1\1\GINC-N02\SP\UM062X\6-311G(d)\C21H20N1O8(2)\UNKNOWN\02-Dec-2024\0\\
 # pop=nbo M062X/6-311g(d) scrf=(smd,solvent=generic,read) temperature=
 298.15 Geom=Check Guess=Read\\Reagente 1\\0,2\C,0,-2.4629578986,0.4099
 448228,-0.0159339641\H,0,-2.0623699185,0.8647779248,-0.9188856792\C,0,
 -1.7493520128,0.4742375747,1.1198817687\H,0,-2.105855467,0.0443824421,
 2.0505700392\C,0,-0.4566382389,1.1599611023,1.2328075449\O,0,0.1497795
 151,1.2181609574,2.2818565818\C,0,-3.7709389062,-0.2090881139,-0.19499
 41594\C,0,-4.4243161203,-0.048909278,-1.4198843008\C,0,-4.4058646177,-

 Normal termination of Gaussian 16 at Mon Dec  2 13:09:15 2024.
