 Gaussian 16, Revision A.03,
 Gaussian 16:  ES64L-G16RevA.03 25-Dec-2016

 ----------------------------------------------------------------------
 # pop=nbo M062X/6-311g(d) scrf=(smd,solvent=generic,read) temperature=
 298.15 Geom=Check Guess=Read
 ----------------------------------------------------------------------

 ----------
 Reagente 1
 ----------
 Structure from the checkpoint file:  "CURCUMIN-Reag-2-M062X-6-311G-D-298-NBO.chk"
 Charge =  0 Multiplicity = 2

                         Standard orientation:
 ---------------------------------------------------------------------
 Center     Atomic      Atomic             Coordinates (Angstroms)
 Number     Number       Type             X           Y           Z
 ---------------------------------------------------------------------
      1          6           0       -2.772759    0.227727   -0.541623
      2          1           0       -2.402195    0.686179   -1.455269
      3          6           0       -1.939301    0.065683    0.497513
      4          1           0       -2.272950   -0.376351    1.431765
      5          6           0       -0.518050    0.458945    0.513383
      6          8           0        0.146135    0.296408    1.516159
      7          6           0       -4.183364   -0.153964   -0.591200
      8          6           0       -4.923461    0.149768   -1.736171
      9          6           0       -4.831739   -0.817637    0.463045
     10          6           0       -6.269819   -0.180005   -1.827735
     11          1           0       -4.441461    0.657383   -2.564955
     12          6           0       -6.169730   -1.148130    0.385433
     13          1           0       -4.304896   -1.083367    1.372996
     14          6           0       -6.904559   -0.824126   -0.771631
     15          1           0       -6.836730    0.070627   -2.719434
     16          8           0       -8.214163   -1.157991   -0.784692
     17          1           0       -8.614834   -0.884725   -1.620108
     18          8           0       -6.783341   -1.754670    1.442091
     19          6           0       -7.084652   -3.132221    1.219957
     20          1           0       -6.167370   -3.695572    1.024911
     21          1           0       -7.547783   -3.498355    2.134486
     22          1           0       -7.778157   -3.254808    0.386083
     23          6           0        2.901960    0.023760   -0.311251
     24          1           0        2.070210   -0.666881   -0.428022
     25          6           0        2.651965    1.340889   -0.288612
     26          1           0        3.438926    2.073881   -0.138869
     27          6           0        1.306771    1.923231   -0.395724
     28          8           0        1.135695    3.113159   -0.210077
     29          6           0        4.206261   -0.622488   -0.172355
     30          6           0        4.274932   -2.017048   -0.210145
     31          6           0        5.401210    0.096705   -0.008053
     32          6           0        5.489128   -2.679684   -0.079678
     33          1           0        3.364897   -2.593817   -0.337572
     34          6           0        6.613315   -0.550105    0.126872
     35          1           0        5.408889    1.180413    0.030831
     36          6           0        6.664036   -1.956908    0.093736
     37          1           0        5.526917   -3.764793   -0.102921
     38          8           0        7.876929   -2.534860    0.245828
     39          1           0        7.788587   -3.496196    0.213909
     40          8           0        7.752705    0.173299    0.328313
     41          6           0        8.613999    0.215678   -0.808802
     42          1           0        8.101503    0.678545   -1.657335
     43          1           0        9.470193    0.825425   -0.525683
     44          1           0        8.954166   -0.784549   -1.083486
     45          6           0        0.108185    1.053337   -0.745032
     46          1           0        0.367707    0.230654   -1.416889
     47          1           0       -0.601696    1.690880   -1.270728
     48          8           0       -1.993892    3.711762   -0.124815
     49          8           0       -1.108705    3.684428    1.867451
     50          7           0       -1.402970    3.273244    0.801808
 ---------------------------------------------------------------------

 SCF Done:  E(UM062X) =  -1468.42156611     A.U. after    1 cycles

 The electronic state is 2-A.
 Alpha  occ. eigenvalues --  -19.72249 -19.72039 -19.66024 -19.65872 -19.63582
 Alpha  occ. eigenvalues --  -19.63440 -19.61123 -19.60890 -14.99502 -10.63542
 Alpha  occ. eigenvalues --  -10.63047 -10.61747 -10.61561 -10.60178 -10.59997
 Alpha  occ. eigenvalues --  -10.57374 -10.57281 -10.56796 -10.56384 -10.55782
 Alpha  occ. eigenvalues --  -10.55566 -10.55325 -10.55132 -10.55038 -10.54979
 Alpha  occ. eigenvalues --  -10.54844 -10.54824 -10.54579 -10.54518 -10.54017
 Alpha  occ. eigenvalues --   -1.42212  -1.26118  -1.20627  -1.20462  -1.17524
 Alpha  occ. eigenvalues --   -1.17392  -1.17381  -1.16447  -0.97537  -0.97321
 Alpha  occ. eigenvalues --   -0.91490  -0.90817  -0.86703  -0.85914  -0.85739
 Alpha  occ. eigenvalues --   -0.84179  -0.82119  -0.78043  -0.77906  -0.77057
 Alpha  occ. eigenvalues --   -0.75227  -0.74529  -0.71292  -0.70379  -0.67479
 Alpha  occ. eigenvalues --   -0.66950  -0.66725  -0.65637  -0.65442  -0.64241
 Alpha  occ. eigenvalues --   -0.63450  -0.62917  -0.60274  -0.58917  -0.58719
 Alpha  occ. eigenvalues --   -0.58387  -0.57593  -0.55593  -0.55024  -0.54633
 Alpha  occ. eigenvalues --   -0.54191  -0.54104  -0.54035  -0.52043  -0.51304
 Alpha  occ. eigenvalues --   -0.50967  -0.50806  -0.50399  -0.49799  -0.49488
 Alpha  occ. eigenvalues --   -0.49280  -0.48766  -0.48443  -0.47398  -0.46214
 Alpha  occ. eigenvalues --   -0.46010  -0.44650  -0.44363  -0.44281  -0.43899
 Alpha  occ. eigenvalues --   -0.43779  -0.43618  -0.43491  -0.43107  -0.42758
 Alpha  occ. eigenvalues --   -0.42456  -0.40586  -0.40457  -0.35643  -0.35340
 Alpha  occ. eigenvalues --   -0.35202  -0.35030  -0.34710  -0.33342  -0.32071
 Alpha  occ. eigenvalues --   -0.30923  -0.30743  -0.26985  -0.26755
 Alpha virt. eigenvalues --   -0.03910  -0.03638  -0.01470   0.02094   0.02259
 Alpha virt. eigenvalues --    0.05027   0.05336   0.07315   0.07407   0.08802
 Alpha virt. eigenvalues --    0.09618   0.10170   0.10439   0.10963   0.11133

  Beta  occ. eigenvalues --  -19.71530 -19.71362 -19.66022 -19.65872 -19.63583
  Beta  occ. eigenvalues --  -19.63440 -19.61115 -19.60871 -14.98589 -10.63540
  Beta  occ. eigenvalues --  -10.63047 -10.61745 -10.61561 -10.60178 -10.59997
  Beta  occ. eigenvalues --  -10.57374 -10.57281 -10.56791 -10.56384 -10.55783
  Beta  occ. eigenvalues --  -10.55566 -10.55324 -10.55132 -10.55037 -10.54980
  Beta  occ. eigenvalues --  -10.54844 -10.54824 -10.54577 -10.54517 -10.54016
  Beta  occ. eigenvalues --   -1.39872  -1.23542  -1.20623  -1.20462  -1.17524
  Beta  occ. eigenvalues --   -1.17381  -1.17371  -1.16416  -0.97532  -0.97321
  Beta  occ. eigenvalues --   -0.91483  -0.90812  -0.86699  -0.85913  -0.85739
  Beta  occ. eigenvalues --   -0.84175  -0.82112  -0.78042  -0.77906  -0.75248
  Beta  occ. eigenvalues --   -0.74528  -0.72835  -0.71283  -0.70370  -0.66945
  Beta  occ. eigenvalues --   -0.66721  -0.64286  -0.63867  -0.63433  -0.62931
  Beta  occ. eigenvalues --   -0.62544  -0.62195  -0.60241  -0.58910  -0.58710
  Beta  occ. eigenvalues --   -0.58380  -0.57575  -0.55537  -0.54999  -0.54626
  Beta  occ. eigenvalues --   -0.54188  -0.54092  -0.54029  -0.52033  -0.51278
  Beta  occ. eigenvalues --   -0.50964  -0.50796  -0.50387  -0.49794  -0.49470
  Beta  occ. eigenvalues --   -0.49250  -0.48757  -0.48439  -0.47369  -0.45996
  Beta  occ. eigenvalues --   -0.44656  -0.44350  -0.44338  -0.43889  -0.43789
  Beta  occ. eigenvalues --   -0.43586  -0.43250  -0.42819  -0.42692  -0.42449
  Beta  occ. eigenvalues --   -0.40615  -0.40457  -0.40191  -0.35531  -0.35288
  Beta  occ. eigenvalues --   -0.35166  -0.34947  -0.33462  -0.32134  -0.30922
  Beta  occ. eigenvalues --   -0.30743  -0.27019  -0.26757
  Beta virt. eigenvalues --   -0.08137  -0.03666  -0.03536   0.00516   0.02105
  Beta virt. eigenvalues --    0.02261   0.05043   0.05356   0.07316   0.07407
  Beta virt. eigenvalues --    0.08819   0.09625   0.10169   0.10440   0.10968

 Mulliken charges and spin densities:
               1          2
     1  C   -0.236663   0.011075
     2  H    0.287718  -0.000594
     3  C   -0.353900  -0.003969
     4  H    0.259551   0.000027
     5  C    0.365252  -0.009993
     6  O   -0.353005   0.005742
     7  C   -0.014842  -0.002292
     8  C   -0.242950   0.002596
     9  C   -0.236122   0.001963
    10  C   -0.282588  -0.001229
    11  H    0.261333  -0.000108
    12  C    0.171676  -0.001052
    13  H    0.267583  -0.000092
    14  C    0.242547   0.002446
    15  H    0.269579   0.000029
    16  O   -0.594727   0.000493
    17  H    0.442098  -0.000023
    18  O   -0.383291  -0.000009
    19  C   -0.502713  -0.000010
    20  H    0.228217  -0.000007
    21  H    0.243995  -0.000000
    22  H    0.246405  -0.000002
    23  C   -0.220552   0.000481
    24  H    0.270070   0.000028
    25  C   -0.345042  -0.000069
    26  H    0.257910   0.000002
    27  C    0.398180   0.003589
    28  O   -0.374822   0.002565
    29  C   -0.023934  -0.000092
    30  C   -0.243035   0.000101
    31  C   -0.235548   0.000071
    32  C   -0.282934  -0.000043
    33  H    0.260603  -0.000003
    34  C    0.170898  -0.000040
    35  H    0.267100   0.000000
    36  C    0.242037   0.000089
    37  H    0.268384   0.000001
    38  O   -0.595549   0.000018
    39  H    0.441370  -0.000001
    40  O   -0.383417  -0.000000
    41  C   -0.502387  -0.000000
    42  H    0.228142  -0.000000
    43  H    0.243414   0.000000
    44  H    0.245355  -0.000000
    45  C   -0.769164  -0.002554
    46  H    0.312699   0.001349
    47  H    0.286134   0.001481
    48  O   -0.203806   0.248373
    49  O   -0.195415   0.267005
    50  N    0.398157   0.472657
 Sum of Mulliken charges =  -0.00000   1.00000

 Dipole moment (field-independent basis, Debye):
    X=             -2.2839    Y=             -8.2260    Z=             -8.0618  Tot=             11.7421
 Quadrupole moment (field-independent basis, Debye-Ang):
   XX=           -122.0231   YY=           -165.5813   ZZ=           -172.5186
   XY=            -13.0754   XZ=             10.4535   YZ=             -4.9852

 Summary of Natural Population Analysis:

                                       Natural Population
                Natural  -----------------------------------------------
    Atom  No    Charge         Core      Valence    Rydberg      Total
 -----------------------------------------------------------------------
      C    1   -0.05458      0.99953     2.04690    0.00814     3.05458
      H    2    0.10787      0.00000     0.39097    0.00116     0.39213
      C    3   -0.15960      0.99950     2.15081    0.00929     3.15960
      H    4    0.11176      0.00000     0.38657    0.00167     0.38824
      C    5    0.28494      0.99965     1.69497    0.02044     2.71506
      O    6   -0.28979      0.99989     3.28483    0.00508     4.28979
      C    7   -0.06195      0.99950     2.05467    0.00778     3.06195
      C    8   -0.08315      0.99955     2.07597    0.00762     3.08315
      C    9   -0.10501      0.99950     2.09787    0.00764     3.10501
      C   10   -0.14506      0.99954     2.13757    0.00795     3.14506
      H   11    0.11226      0.00000     0.38688    0.00086     0.38774
      C   12    0.13481      0.99935     1.85375    0.01209     2.86519
      H   13    0.11700      0.00000     0.38172    0.00129     0.38300
      C   14    0.16014      0.99937     1.82937    0.01111     2.83986
      H   15    0.11490      0.00000     0.38395    0.00116     0.38510
      O   16   -0.34065      0.99988     3.33598    0.00479     4.34065
      H   17    0.24270      0.00000     0.25674    0.00057     0.25730
      O   18   -0.28680      0.99987     3.28089    0.00604     4.28680
      C   19   -0.09701      0.99961     2.08898    0.00843     3.09701
      H   20    0.08292      0.00000     0.41619    0.00089     0.41708
      H   21    0.09303      0.00000     0.40650    0.00047     0.40697
      H   22    0.08767      0.00000     0.41143    0.00090     0.41233
      C   23   -0.05570      0.99953     2.04785    0.00833     3.05570
      H   24    0.10623      0.00000     0.39230    0.00148     0.39377
      C   25   -0.15406      0.99950     2.14549    0.00907     3.15406
      H   26    0.11062      0.00000     0.38770    0.00168     0.38938
      C   27    0.29515      0.99965     1.68361    0.02159     2.70485
      O   28   -0.29570      0.99989     3.29064    0.00517     4.29570
      C   29   -0.06071      0.99950     2.05351    0.00770     3.06071
      C   30   -0.08454      0.99955     2.07739    0.00760     3.08454
      C   31   -0.10551      0.99950     2.09838    0.00763     3.10551
      C   32   -0.14489      0.99954     2.13740    0.00794     3.14489
      H   33    0.11195      0.00000     0.38719    0.00086     0.38805
      C   34    0.13482      0.99935     1.85375    0.01208     2.86518
      H   35    0.11697      0.00000     0.38174    0.00129     0.38303
      C   36    0.15844      0.99937     1.83108    0.01111     2.84156
      H   37    0.11448      0.00000     0.38436    0.00116     0.38552
      O   38   -0.34125      0.99988     3.33658    0.00479     4.34125
      H   39    0.24244      0.00000     0.25700    0.00057     0.25756
      O   40   -0.28688      0.99987     3.28097    0.00605     4.28688
      C   41   -0.09688      0.99961     2.08883    0.00844     3.09688
      H   42    0.08286      0.00000     0.41625    0.00089     0.41714
      H   43    0.09288      0.00000     0.40665    0.00047     0.40712
      H   44    0.08735      0.00000     0.41174    0.00091     0.41265
      C   45   -0.29595      0.99957     2.28864    0.00774     3.29595
      H   46    0.12689      0.00000     0.37243    0.00067     0.37311
      H   47    0.12159      0.00000     0.37673    0.00169     0.37841
      O   48   -0.02278      0.99989     3.01545    0.00744     4.02278
      O   49   -0.00217      0.99989     2.99481    0.00747     4.00217
      N   50    0.51795      0.99980     1.95487    0.02738     2.98205
 =======================================================================
   * Total *    0.50000     29.98863    77.70681    0.30456   108.00000

 1\1\GINC-N02\SP\UM062X\6-311G(d)\C21H20N1O8(2)\UNKNOWN\02-Dec-2024\0\\
 # pop=nbo M062X/6-311g(d) scrf=(smd,solvent=generic,read) temperature=
 298.15 Geom=Check Guess=Read\\Reagente 1\\0,2\C,0,-2.7926809904,0.1735
 420132,-0.5265109484\H,0,-2.4119789967,0.5701105038,-1.464617728\C,0,-
 1.9623833737,0.0506465916,0.5204928338\H,0,-2.305760567,-0.3292617244,
 1.4782531611\C,0,-0.5319714689,0.4094624514,0.5145215798\O,0,0.1290552
 845,0.2881259635,1.5251844818\C,0,-4.212200927,-0.1759015536,-0.554845
 8362\C,0,-4.9458239174,0.080115726,-1.7155377871\C,0,-4.8754844524,-0.

 Normal termination of Gaussian 16 at Mon Dec  2 13:11:13 2024.
