 Gaussian 16, Revision A.03,
 Gaussian 16:  ES64L-G16RevA.03 25-Dec-2016

 ----------------------------------------------------------------------
 # pop=nbo b3lyp/6-311g(d) scrf=(smd,solvent=generic,read) temperature=
 298.15 Geom=Check Guess=Read
 ----------------------------------------------------------------------

 ----------
 Reagente 1
 ----------
 Structure from the checkpoint file:  "CURCUMIN-TS-1-B3LYP-6-311G-D-298-NBO.chk"
 Charge =  0 Multiplicity = 2

                         Standard orientation:
 ---------------------------------------------------------------------
 Center     Atomic      Atomic             Coordinates (Angstroms)
 Number     Number       Type             X           Y           Z
 ---------------------------------------------------------------------
      1          6           0        2.234960    0.886534    0.814623
      2          1           0        1.799235    1.880710    0.793742
      3          6           0        1.525448   -0.111427    1.378856
      4          1           0        1.902767   -1.125791    1.452401
      5          6           0        0.183082    0.038064    1.964626
      6          8           0       -0.401902   -0.944675    2.396791
      7          6           0        3.567201    0.829429    0.229617
      8          6           0        4.279555    2.026231    0.094830
      9          6           0        4.275633   -0.353830   -0.120272
     10          6           0        5.579927    2.068256   -0.393743
     11          1           0        3.797613    2.952753    0.386460
     12          6           0        5.551555   -0.330819   -0.707692
     13          1           0        4.767728   -0.806611    1.680566
     14          6           0        6.225089    0.900181   -0.799398
     15          1           0        6.092065    3.021386   -0.487206
     16          8           0        7.468484    0.881706   -1.332176
     17          1           0        7.821611    1.781712   -1.381386
     18          8           0        6.066460   -1.478241   -1.212159
     19          6           0        7.180065   -2.056921   -0.495377
     20          1           0        6.897275   -2.265496    0.538641
     21          1           0        7.404394   -2.989997   -1.008942
     22          1           0        8.048398   -1.398413   -0.526635
     23          6           0       -3.109801    0.495423    0.907207
     24          1           0       -2.712612    0.049611    1.814730
     25          6           0       -2.372037    1.434828    0.276686
     26          1           0       -2.709035    1.892230   -0.649168
     27          6           0       -1.063294    1.918980    0.720941
     28          8           0       -0.439568    2.727043    0.044142
     29          6           0       -4.403338   -0.031397    0.495482
     30          6           0       -5.003913   -1.035124    1.271903
     31          6           0       -5.095621    0.421655   -0.645083
     32          6           0       -6.235138   -1.573474    0.920023
     33          1           0       -4.495545   -1.403717    2.156895
     34          6           0       -6.322758   -0.104936   -1.008146
     35          1           0       -4.679224    1.194035   -1.281692
     36          6           0       -6.902716   -1.124128   -0.219576
     37          1           0       -6.681716   -2.358109    1.525027
     38          8           0       -8.093755   -1.631989   -0.625122
     39          1           0       -8.380882   -2.322201   -0.010659
     40          8           0       -6.921467    0.326590   -2.162085
     41          6           0       -8.126612    1.088496   -1.990655
     42          1           0       -7.936483    1.979525   -1.383391
     43          1           0       -8.435523    1.393018   -2.990243
     44          1           0       -8.916814    0.490958   -1.532555
     45          6           0       -0.472580    1.421036    2.049538
     46          1           0       -1.248682    1.352439    2.811506
     47          1           0        0.254824    2.167596    2.369437
     48          8           0        3.838866   -2.616660    0.322155
     49          8           0        2.692985   -1.619564   -1.224102
     50          7           0        3.537363   -1.640235   -0.343349
 ---------------------------------------------------------------------

 SCF Done:  E(UB3LYP) =  -1468.91188636     A.U. after    2 cycles

 The electronic state is 2-A.
 Alpha  occ. eigenvalues --  -19.17181 -19.16509 -19.16443 -19.16145 -19.15322
 Alpha  occ. eigenvalues --  -19.13450 -19.10692 -19.10213 -14.55997 -10.26373
 Alpha  occ. eigenvalues --  -10.26243 -10.26006 -10.25967 -10.25679 -10.24751
 Alpha  occ. eigenvalues --  -10.23189 -10.21421 -10.21381 -10.20650 -10.20171
 Alpha  occ. eigenvalues --  -10.19786 -10.19660 -10.19400 -10.18745 -10.18244
 Alpha  occ. eigenvalues --  -10.18223 -10.17991 -10.17919 -10.17656 -10.17211
 Alpha  occ. eigenvalues --   -1.24748  -1.09569  -1.08231  -1.07398  -1.06883
 Alpha  occ. eigenvalues --   -1.04954  -1.04391  -1.03715  -0.89749  -0.86800
 Alpha  occ. eigenvalues --   -0.82183  -0.81229  -0.80880  -0.77646  -0.76185
 Alpha  occ. eigenvalues --   -0.75612  -0.73270  -0.71913  -0.69906  -0.68924
 Alpha  occ. eigenvalues --   -0.66284  -0.65709  -0.62733  -0.62229  -0.61250
 Alpha  occ. eigenvalues --   -0.58661  -0.57816  -0.56759  -0.55875  -0.54676
 Alpha  occ. eigenvalues --   -0.53136  -0.52994  -0.52798  -0.51784  -0.51231
 Alpha  occ. eigenvalues --   -0.50715  -0.50048  -0.48797  -0.48329  -0.47837
 Alpha  occ. eigenvalues --   -0.47378  -0.46234  -0.45718  -0.44943  -0.44368
 Alpha  occ. eigenvalues --   -0.44047  -0.43967  -0.43069  -0.42903  -0.42558
 Alpha  occ. eigenvalues --   -0.41919  -0.41248  -0.40725  -0.40212  -0.39505
 Alpha  occ. eigenvalues --   -0.39101  -0.38878  -0.38523  -0.37754  -0.37536
 Alpha  occ. eigenvalues --   -0.36917  -0.36478  -0.36065  -0.35899  -0.34171
 Alpha  occ. eigenvalues --   -0.33168  -0.32948  -0.32071  -0.30030  -0.29797
 Alpha  occ. eigenvalues --   -0.29305  -0.29151  -0.28376  -0.26536  -0.25233
 Alpha  occ. eigenvalues --   -0.24860  -0.23924  -0.22465  -0.22023
 Alpha virt. eigenvalues --   -0.09037  -0.07897  -0.06825  -0.03021  -0.01311
 Alpha virt. eigenvalues --   -0.00480   0.01328   0.03266   0.03848   0.05347
 Alpha virt. eigenvalues --    0.05916   0.06474   0.07048   0.07452   0.07865

  Beta  occ. eigenvalues --  -19.17208 -19.16476 -19.16440 -19.16145 -19.15277
  Beta  occ. eigenvalues --  -19.13450 -19.10658 -19.10212 -14.55970 -10.26381
  Beta  occ. eigenvalues --  -10.26319 -10.25967 -10.25804 -10.25755 -10.24751
  Beta  occ. eigenvalues --  -10.23189 -10.21399 -10.21207 -10.20650 -10.20208
  Beta  occ. eigenvalues --  -10.19856 -10.19531 -10.19400 -10.18745 -10.18223
  Beta  occ. eigenvalues --  -10.18189 -10.17991 -10.17919 -10.17656 -10.17211
  Beta  occ. eigenvalues --   -1.24716  -1.09580  -1.08231  -1.07367  -1.06794
  Beta  occ. eigenvalues --   -1.04954  -1.04342  -1.03708  -0.89602  -0.86800
  Beta  occ. eigenvalues --   -0.82078  -0.81212  -0.80869  -0.77543  -0.76184
  Beta  occ. eigenvalues --   -0.75572  -0.73231  -0.71772  -0.69789  -0.68924
  Beta  occ. eigenvalues --   -0.66271  -0.65639  -0.62711  -0.62222  -0.61133
  Beta  occ. eigenvalues --   -0.58661  -0.57753  -0.56717  -0.55865  -0.54637
  Beta  occ. eigenvalues --   -0.53081  -0.52907  -0.52745  -0.51757  -0.51230
  Beta  occ. eigenvalues --   -0.50648  -0.50006  -0.48735  -0.48273  -0.47513
  Beta  occ. eigenvalues --   -0.47373  -0.46234  -0.45708  -0.44919  -0.44353
  Beta  occ. eigenvalues --   -0.44013  -0.43963  -0.43046  -0.42876  -0.42465
  Beta  occ. eigenvalues --   -0.41907  -0.41241  -0.40671  -0.39760  -0.39454
  Beta  occ. eigenvalues --   -0.38929  -0.38583  -0.38393  -0.37740  -0.37522
  Beta  occ. eigenvalues --   -0.36893  -0.36445  -0.35921  -0.35826  -0.34169
  Beta  occ. eigenvalues --   -0.32988  -0.32138  -0.32092  -0.29869  -0.29579
  Beta  occ. eigenvalues --   -0.29135  -0.28376  -0.27540  -0.26510  -0.25232
  Beta  occ. eigenvalues --   -0.24840  -0.23296  -0.22022
  Beta virt. eigenvalues --   -0.10441  -0.08473  -0.07623  -0.06374  -0.01958
  Beta virt. eigenvalues --   -0.01302  -0.00136   0.01386   0.03302   0.03848
  Beta virt. eigenvalues --    0.05385   0.06070   0.06479   0.07066   0.07460

 Mulliken charges and spin densities:
               1          2
     1  C   -0.200977  -0.028386
     2  H    0.247123   0.001404
     3  C   -0.301663   0.042241
     4  H    0.213980  -0.001959
     5  C    0.359409  -0.004464
     6  O   -0.337995   0.012255
     7  C    0.162578   0.102219
     8  C   -0.225758  -0.056140
     9  C   -0.096558  -0.106826
    10  C   -0.228782   0.101758
    11  H    0.243602   0.002861
    12  C    0.284299   0.133587
    13  H   -0.023642   0.837770
    14  C    0.256161  -0.052657
    15  H    0.250849  -0.005345
    16  O   -0.560010  -0.006687
    17  H    0.434381   0.000115
    18  O   -0.362492   0.009850
    19  C   -0.460398   0.010293
    20  H    0.226899  -0.002928
    21  H    0.236227  -0.000234
    22  H    0.234391  -0.000161
    23  C   -0.210923  -0.000016
    24  H    0.239554  -0.000047
    25  C   -0.320171   0.000070
    26  H    0.219658  -0.000004
    27  C    0.364444  -0.000018
    28  O   -0.347360   0.000064
    29  C    0.045545   0.000017
    30  C   -0.229039  -0.000005
    31  C   -0.247909  -0.000009
    32  C   -0.256935   0.000002
    33  H    0.229827   0.000001
    34  C    0.198090   0.000004
    35  H    0.228261   0.000001
    36  C    0.243578  -0.000001
    37  H    0.237742  -0.000000
    38  O   -0.564365   0.000001
    39  H    0.427189  -0.000000
    40  O   -0.367630   0.000000
    41  C   -0.456397   0.000000
    42  H    0.209679   0.000000
    43  H    0.226222   0.000000
    44  H    0.225674  -0.000000
    45  C   -0.711105   0.000190
    46  H    0.273552  -0.000024
    47  H    0.273494  -0.000023
    48  O   -0.243855   0.004017
    49  O   -0.259460   0.001944
    50  N    0.221017   0.005272
 Sum of Mulliken charges =  -0.00000   1.00000

 Dipole moment (field-independent basis, Debye):
    X=              1.5315    Y=              4.6915    Z=              2.6614  Tot=              5.6070
 Quadrupole moment (field-independent basis, Debye-Ang):
   XX=            -63.4906   YY=           -167.2335   ZZ=           -182.1245
   XY=             37.9172   XZ=            -15.1079   YZ=             -3.8851

 Summary of Natural Population Analysis:

                                       Natural Population
                Natural  -----------------------------------------------
    Atom  No    Charge         Core      Valence    Rydberg      Total
 -----------------------------------------------------------------------
      C    1   -0.07394      0.99950     2.06633    0.00811     3.07394
      H    2    0.11307      0.00000     0.38455    0.00237     0.38693
      C    3   -0.12323      0.99948     2.11456    0.00919     3.12323
      H    4    0.10474      0.00000     0.39277    0.00248     0.39526
      C    5    0.28036      0.99962     1.70017    0.01985     2.71964
      O    6   -0.28423      0.99988     3.27967    0.00468     4.28423
      C    7   -0.00583      0.99941     1.99749    0.00893     3.00583
      C    8   -0.09325      0.99952     2.08602    0.00771     3.09325
      C    9   -0.03144      0.99936     2.01871    0.01337     3.03144
      C   10   -0.08325      0.99952     2.07595    0.00779     3.08325
      H   11    0.11534      0.00000     0.38383    0.00083     0.38466
      C   12    0.20313      0.99927     1.78490    0.01271     2.79687
      H   13    0.42057      0.00000     0.07889    0.00053     0.07943
      C   14    0.13963      0.99935     1.84971    0.01131     2.86037
      H   15    0.11378      0.00000     0.38505    0.00117     0.38622
      O   16   -0.33334      0.99987     3.32907    0.00440     4.33334
      H   17    0.24281      0.00000     0.25663    0.00056     0.25719
      O   18   -0.27217      0.99985     3.26711    0.00521     4.27217
      C   19   -0.08980      0.99958     2.08219    0.00803     3.08980
      H   20    0.08689      0.00000     0.41214    0.00097     0.41311
      H   21    0.09431      0.00000     0.40523    0.00046     0.40569
      H   22    0.08887      0.00000     0.41019    0.00094     0.41113
      C   23   -0.05357      0.99950     2.04595    0.00812     3.05357
      H   24    0.10701      0.00000     0.39069    0.00230     0.39299
      C   25   -0.15344      0.99948     2.14485    0.00910     3.15344
      H   26    0.10647      0.00000     0.39161    0.00191     0.39353
      C   27    0.27910      0.99961     1.70137    0.01992     2.72090
      O   28   -0.29713      0.99988     3.29253    0.00471     4.29713
      C   29   -0.05764      0.99947     2.05016    0.00801     3.05764
      C   30   -0.07910      0.99953     2.07186    0.00771     3.07910
      C   31   -0.10016      0.99948     2.09297    0.00772     3.10016
      C   32   -0.14064      0.99952     2.13307    0.00806     3.14064
      H   33    0.10942      0.00000     0.38968    0.00090     0.39058
      C   34    0.13412      0.99933     1.85445    0.01210     2.86588
      H   35    0.11272      0.00000     0.38585    0.00143     0.38728
      C   36    0.15764      0.99936     1.83175    0.01125     2.84236
      H   37    0.11082      0.00000     0.38793    0.00126     0.38918
      O   38   -0.33289      0.99987     3.32863    0.00440     4.33289
      H   39    0.24015      0.00000     0.25923    0.00061     0.25985
      O   40   -0.28210      0.99986     3.27673    0.00551     4.28210
      C   41   -0.09423      0.99959     2.08647    0.00816     3.09423
      H   42    0.08155      0.00000     0.41740    0.00105     0.41845
      H   43    0.09105      0.00000     0.40843    0.00051     0.40895
      H   44    0.08643      0.00000     0.41248    0.00109     0.41357
      C   45   -0.27943      0.99954     2.27226    0.00763     3.27943
      H   46    0.11798      0.00000     0.38078    0.00124     0.38202
      H   47    0.11809      0.00000     0.38067    0.00124     0.38191
      O   48   -0.18007      0.99989     3.17342    0.00675     4.18007
      O   49   -0.18013      0.99989     3.17368    0.00655     4.18013
      N   50    0.26496      0.99967     2.20635    0.02902     3.23504
 =======================================================================
   * Total *    0.50000     29.98767    77.70243    0.30990   108.00000

 1\1\GINC-N02\SP\UB3LYP\6-311G(d)\C21H20N1O8(2)\UNKNOWN\06-Nov-2024\0\\
 # pop=nbo b3lyp/6-311g(d) scrf=(smd,solvent=generic,read) temperature=
 298.15 Geom=Check Guess=Read\\Reagente 1\\0,2\C,0,2.2534838946,1.03400
 14868,0.566147563\H,0,1.8249678539,1.9946133827,0.2973051039\C,0,1.536
 3967245,0.2128430187,1.3593544319\H,0,1.9063278625,-0.7538082186,1.684
 0851695\C,0,0.194747417,0.512649058,1.8861505932\O,0,-0.3976150382,-0.
 327504608,2.5479643972\C,0,3.5856752453,0.8239282364,0.0170632442\C,0,
 4.3067494472,1.9445762357,-0.4097290338\C,0,4.2857782824,-0.4139930426

 Normal termination of Gaussian 16 at Wed Nov  6 14:07:05 2024.
