 Gaussian 16, Revision A.03,
 Gaussian 16:  ES64L-G16RevA.03 25-Dec-2016

 ----------------------------------------------------------------------
 # pop=nbo b3lyp/6-311g(d) scrf=(smd,solvent=generic,read) temperature=
 298.15 Geom=Check Guess=Read
 ----------------------------------------------------------------------

 ----------
 Reagente 1
 ----------
 Structure from the checkpoint file:  "CURCUMIN-Reag-1-B3LYP-6-311G-D-298-NBO.chk"
 Charge =  0 Multiplicity = 2

                         Standard orientation:
 ---------------------------------------------------------------------
 Center     Atomic      Atomic             Coordinates (Angstroms)
 Number     Number       Type             X           Y           Z
 ---------------------------------------------------------------------
      1          6           0        2.205432    0.979520    0.728341
      2          1           0        1.772659    1.960559    0.554237
      3          6           0        1.468544    0.057835    1.407735
      4          1           0        1.837952   -0.948437    1.573614
      5          6           0        0.131040    0.285692    1.953802
      6          8           0       -0.474226   -0.628084    2.503857
      7          6           0        3.521633    0.816942    0.192213
      8          6           0        4.158356    1.883547   -0.427617
      9          6           0        4.265491   -0.482196    0.287564
     10          6           0        5.491546    1.823975   -0.829709
     11          1           0        3.614248    2.813234   -0.558149
     12          6           0        5.719426   -0.443750   -0.036926
     13          1           0        4.096773   -1.004881    1.229023
     14          6           0        6.290150    0.681927   -0.594739
     15          1           0        5.952176    2.692289   -1.291156
     16          8           0        7.623948    0.691767   -0.884325
     17          1           0        7.867974    1.551431   -1.253560
     18          8           0        6.303558   -1.620118    0.260379
     19          6           0        7.499391   -2.066281   -0.411821
     20          1           0        8.370033   -1.503548   -0.081542
     21          1           0        7.601849   -3.113243   -0.132329
     22          1           0        7.382747   -1.981661   -1.492842
     23          6           0       -3.167070    0.607804    0.866807
     24          1           0       -2.773038    0.296686    1.830233
     25          6           0       -2.425052    1.441511    0.106641
     26          1           0       -2.761604    1.759787   -0.875963
     27          6           0       -1.114004    1.983255    0.474529
     28          8           0       -0.494815    2.687661   -0.313816
     29          6           0       -4.462135    0.030793    0.532222
     30          6           0       -5.068039   -0.846255    1.445558
     31          6           0       -5.149434    0.311709   -0.665310
     32          6           0       -6.298818   -1.429257    1.171760
     33          1           0       -4.563254   -1.080968    2.376958
     34          6           0       -6.375995   -0.261891   -0.952282
     35          1           0       -4.729995    0.981890   -1.407177
     36          6           0       -6.960870   -1.153125   -0.024681
     37          1           0       -6.748881   -2.115424    1.884217
     38          8           0       -8.150893   -1.715606   -0.355725
     39          1           0       -8.440829   -2.306464    0.353611
     40          8           0       -6.968120   -0.004673   -2.160492
     41          6           0       -8.177003    0.768826   -2.109988
     42          1           0       -7.995608    1.737536   -1.632917
     43          1           0       -8.476522    0.927854   -3.145538
     44          1           0       -8.970180    0.238712   -1.579783
     45          6           0       -0.515416    1.675256    1.853845
     46          1           0       -1.284827    1.718716    2.624431
     47          1           0        0.217658    2.455400    2.059464
     48          8           0        2.828725   -2.335166   -0.308501
     49          8           0        3.904275   -1.386889   -1.931935
     50          7           0        3.603999   -1.512232   -0.759718
 ---------------------------------------------------------------------

 SCF Done:  E(UB3LYP) =  -1468.98900681     A.U. after    1 cycles

 The electronic state is 2-A.
 Alpha  occ. eigenvalues --  -19.16941 -19.16117 -19.16082 -19.16024 -19.15903
 Alpha  occ. eigenvalues --  -19.13408 -19.10022 -19.09989 -14.54388 -10.25731
 Alpha  occ. eigenvalues --  -10.25634 -10.25567 -10.25046 -10.24678 -10.24551
 Alpha  occ. eigenvalues --  -10.23135 -10.21683 -10.20607 -10.20417 -10.19560
 Alpha  occ. eigenvalues --  -10.19315 -10.19232 -10.19098 -10.18664 -10.18138
 Alpha  occ. eigenvalues --  -10.17927 -10.17849 -10.17549 -10.17315 -10.17066
 Alpha  occ. eigenvalues --   -1.23841  -1.09175  -1.08160  -1.07139  -1.06828
 Alpha  occ. eigenvalues --   -1.04902  -1.03790  -1.03360  -0.88508  -0.86721
 Alpha  occ. eigenvalues --   -0.81615  -0.80720  -0.79939  -0.77302  -0.76116
 Alpha  occ. eigenvalues --   -0.75278  -0.72942  -0.71651  -0.69476  -0.68873
 Alpha  occ. eigenvalues --   -0.66065  -0.64281  -0.62750  -0.62107  -0.59561
 Alpha  occ. eigenvalues --   -0.58563  -0.57487  -0.56045  -0.55371  -0.54749
 Alpha  occ. eigenvalues --   -0.54092  -0.52856  -0.52209  -0.51672  -0.51143
 Alpha  occ. eigenvalues --   -0.50745  -0.49515  -0.48981  -0.48150  -0.47799
 Alpha  occ. eigenvalues --   -0.47267  -0.46183  -0.45511  -0.45400  -0.44494
 Alpha  occ. eigenvalues --   -0.44180  -0.43863  -0.43278  -0.42652  -0.42137
 Alpha  occ. eigenvalues --   -0.41735  -0.41458  -0.41119  -0.39525  -0.39182
 Alpha  occ. eigenvalues --   -0.39094  -0.38211  -0.37855  -0.37663  -0.37224
 Alpha  occ. eigenvalues --   -0.36511  -0.36421  -0.36264  -0.35789  -0.35260
 Alpha  occ. eigenvalues --   -0.34104  -0.33300  -0.32367  -0.30931  -0.30796
 Alpha  occ. eigenvalues --   -0.29463  -0.29023  -0.28336  -0.26169  -0.25155
 Alpha  occ. eigenvalues --   -0.24526  -0.23262  -0.21939  -0.19127
 Alpha virt. eigenvalues --   -0.07558  -0.07216  -0.05837  -0.01233   0.00370
 Alpha virt. eigenvalues --    0.01611   0.03497   0.03886   0.04838   0.05849
 Alpha virt. eigenvalues --    0.06419   0.06548   0.07028   0.07467   0.07811

  Beta  occ. eigenvalues --  -19.16669 -19.16081 -19.16073 -19.16055 -19.15875
  Beta  occ. eigenvalues --  -19.13408 -19.09987 -19.09830 -14.54132 -10.25731
  Beta  occ. eigenvalues --  -10.25667 -10.25231 -10.25050 -10.24678 -10.24625
  Beta  occ. eigenvalues --  -10.23135 -10.21687 -10.20607 -10.20022 -10.19456
  Beta  occ. eigenvalues --  -10.19278 -10.19232 -10.19054 -10.18663 -10.18138
  Beta  occ. eigenvalues --  -10.17927 -10.17849 -10.17315 -10.17282 -10.17066
  Beta  occ. eigenvalues --   -1.23632  -1.08843  -1.08160  -1.06995  -1.06684
  Beta  occ. eigenvalues --   -1.04902  -1.03671  -1.03153  -0.87973  -0.86721
  Beta  occ. eigenvalues --   -0.81264  -0.80663  -0.79430  -0.77023  -0.76113
  Beta  occ. eigenvalues --   -0.75107  -0.72855  -0.71518  -0.68874  -0.68708
  Beta  occ. eigenvalues --   -0.66055  -0.63960  -0.62541  -0.62053  -0.59249
  Beta  occ. eigenvalues --   -0.58562  -0.57330  -0.56012  -0.55267  -0.54360
  Beta  occ. eigenvalues --   -0.53906  -0.52659  -0.52011  -0.51485  -0.51132
  Beta  occ. eigenvalues --   -0.50636  -0.49414  -0.48738  -0.48070  -0.47266
  Beta  occ. eigenvalues --   -0.47077  -0.46183  -0.45409  -0.45150  -0.44299
  Beta  occ. eigenvalues --   -0.44161  -0.43846  -0.43196  -0.42553  -0.42000
  Beta  occ. eigenvalues --   -0.41652  -0.41321  -0.41096  -0.39370  -0.39120
  Beta  occ. eigenvalues --   -0.38705  -0.38131  -0.37716  -0.37625  -0.37148
  Beta  occ. eigenvalues --   -0.36416  -0.36206  -0.35670  -0.35626  -0.34485
  Beta  occ. eigenvalues --   -0.34084  -0.32780  -0.32282  -0.30563  -0.30309
  Beta  occ. eigenvalues --   -0.29099  -0.28351  -0.28283  -0.26043  -0.25154
  Beta  occ. eigenvalues --   -0.24399  -0.21936  -0.21743
  Beta virt. eigenvalues --   -0.12380  -0.07365  -0.06897  -0.05092  -0.01227
  Beta virt. eigenvalues --    0.00954   0.02292   0.03530   0.03886   0.05724
  Beta virt. eigenvalues --    0.06009   0.06550   0.06877   0.07075   0.07497

 Mulliken charges and spin densities:
               1          2
     1  C   -0.216395  -0.113035
     2  H    0.240855   0.004151
     3  C   -0.314126   0.204440
     4  H    0.217332  -0.009508
     5  C    0.360161  -0.017488
     6  O   -0.347905   0.070479
     7  C    0.159146   0.285027
     8  C   -0.214963  -0.137345
     9  C   -0.398018  -0.036455
    10  C   -0.252410   0.370000
    11  H    0.238320   0.006310
    12  C    0.283241   0.329027
    13  H    0.304087   0.028114
    14  C    0.242184  -0.126286
    15  H    0.248501  -0.020293
    16  O   -0.581417  -0.011113
    17  H    0.430779   0.000022
    18  O   -0.337400   0.077310
    19  C   -0.450540  -0.005132
    20  H    0.238429   0.004127
    21  H    0.239539   0.000460
    22  H    0.235678   0.005914
    23  C   -0.209720   0.000035
    24  H    0.238660  -0.000244
    25  C   -0.323271   0.000352
    26  H    0.218203  -0.000008
    27  C    0.363990   0.000241
    28  O   -0.349419   0.000827
    29  C    0.045678   0.000071
    30  C   -0.229242  -0.000007
    31  C   -0.248823  -0.000028
    32  C   -0.257447  -0.000001
    33  H    0.229425   0.000003
    34  C    0.197835   0.000011
    35  H    0.227920   0.000003
    36  C    0.242854   0.000015
    37  H    0.237676   0.000000
    38  O   -0.564927   0.000009
    39  H    0.426930  -0.000000
    40  O   -0.367752   0.000000
    41  C   -0.456477   0.000000
    42  H    0.209597  -0.000000
    43  H    0.225926   0.000000
    44  H    0.225947  -0.000000
    45  C   -0.706923   0.000157
    46  H    0.270265  -0.000063
    47  H    0.269813  -0.000013
    48  O   -0.261025   0.020190
    49  O   -0.272448   0.010537
    50  N    0.291676   0.059188
 Sum of Mulliken charges =  -0.00000   1.00000

 Dipole moment (field-independent basis, Debye):
    X=              2.5687    Y=              3.1223    Z=              2.0849  Tot=              4.5490
 Quadrupole moment (field-independent basis, Debye-Ang):
   XX=            -60.5263   YY=           -167.7907   ZZ=           -178.9929
   XY=             24.1473   XZ=            -20.8974   YZ=             -7.3304

 Summary of Natural Population Analysis:

                                       Natural Population
                Natural  -----------------------------------------------
    Atom  No    Charge         Core      Valence    Rydberg      Total
 -----------------------------------------------------------------------
      C    1   -0.11559      0.99950     2.10791    0.00818     3.11559
      H    2    0.11237      0.00000     0.38527    0.00236     0.38763
      C    3   -0.05661      0.99949     2.04817    0.00896     3.05661
      H    4    0.10564      0.00000     0.39212    0.00224     0.39436
      C    5    0.26874      0.99961     1.71180    0.01985     2.73126
      O    6   -0.26071      0.99988     3.25625    0.00458     4.26071
      C    7    0.08951      0.99946     1.90267    0.00836     2.91049
      C    8   -0.13556      0.99951     2.12805    0.00801     3.13556
      C    9   -0.08144      0.99945     2.06880    0.01319     3.08144
      C   10    0.04986      0.99953     1.94286    0.00774     2.95014
      H   11    0.11518      0.00000     0.38390    0.00093     0.38482
      C   12    0.31324      0.99939     1.67463    0.01274     2.68676
      H   13    0.13950      0.00000     0.35899    0.00152     0.36050
      C   14    0.07788      0.99933     1.91204    0.01075     2.92212
      H   15    0.10602      0.00000     0.39281    0.00118     0.39398
      O   16   -0.34548      0.99987     3.34125    0.00436     4.34548
      H   17    0.24089      0.00000     0.25852    0.00059     0.25911
      O   18   -0.22015      0.99984     3.21516    0.00514     4.22015
      C   19   -0.09452      0.99959     2.08700    0.00794     3.09452
      H   20    0.09457      0.00000     0.40465    0.00078     0.40543
      H   21    0.09334      0.00000     0.40623    0.00043     0.40666
      H   22    0.09224      0.00000     0.40691    0.00085     0.40776
      C   23   -0.05458      0.99950     2.04692    0.00816     3.05458
      H   24    0.10747      0.00000     0.39018    0.00236     0.39253
      C   25   -0.15305      0.99948     2.14445    0.00912     3.15305
      H   26    0.10593      0.00000     0.39213    0.00194     0.39407
      C   27    0.27900      0.99961     1.70148    0.01990     2.72100
      O   28   -0.29748      0.99988     3.29290    0.00470     4.29748
      C   29   -0.05731      0.99947     2.04983    0.00800     3.05731
      C   30   -0.07960      0.99953     2.07235    0.00772     3.07960
      C   31   -0.10056      0.99948     2.09337    0.00771     3.10056
      C   32   -0.14076      0.99952     2.13319    0.00806     3.14076
      H   33    0.10934      0.00000     0.38975    0.00091     0.39066
      C   34    0.13406      0.99933     1.85450    0.01210     2.86594
      H   35    0.11267      0.00000     0.38590    0.00143     0.38733
      C   36    0.15708      0.99936     1.83231    0.01125     2.84292
      H   37    0.11079      0.00000     0.38795    0.00126     0.38921
      O   38   -0.33318      0.99987     3.32891    0.00439     4.33318
      H   39    0.24006      0.00000     0.25933    0.00062     0.25994
      O   40   -0.28213      0.99986     3.27676    0.00551     4.28213
      C   41   -0.09431      0.99959     2.08656    0.00816     3.09431
      H   42    0.08157      0.00000     0.41737    0.00105     0.41843
      H   43    0.09095      0.00000     0.40854    0.00051     0.40905
      H   44    0.08654      0.00000     0.41237    0.00109     0.41346
      C   45   -0.27808      0.99954     2.27089    0.00764     3.27808
      H   46    0.11694      0.00000     0.38180    0.00125     0.38306
      H   47    0.11671      0.00000     0.38202    0.00127     0.38329
      O   48   -0.18087      0.99989     3.17438    0.00660     4.18087
      O   49   -0.18766      0.99989     3.18118    0.00660     4.18766
      N   50    0.30157      0.99979     2.16778    0.03086     3.19843
 =======================================================================
   * Total *    0.50000     29.98803    77.70108    0.31089   108.00000

 1\1\GINC-N02\SP\UB3LYP\6-311G(d)\C21H20N1O8(2)\UNKNOWN\06-Nov-2024\0\\
 # pop=nbo b3lyp/6-311g(d) scrf=(smd,solvent=generic,read) temperature=
 298.15 Geom=Check Guess=Read\\Reagente 1\\0,2\C,0,2.192579339,0.894021
 6676,0.9100899168\H,0,1.7598671153,1.8898971955,0.8779218164\C,0,1.453
 1399997,-0.1164914081,1.4450445068\H,0,1.8225479221,-1.1361467784,1.46
 5104399\C,0,0.1128132534,0.029666184,2.0117792507\O,0,-0.4943829983,-0
 .9542570186,2.4205577335\C,0,3.5115024077,0.8110099712,0.362548783\C,0
 ,4.1503714471,1.9562678166,-0.0929556819\C,0,4.2559348833,-0.488157116

 Normal termination of Gaussian 16 at Wed Nov  6 14:00:48 2024.
