 Gaussian 16, Revision A.03,
 Gaussian 16:  ES64L-G16RevA.03 25-Dec-2016

 ----------------------------------------------------------------------
 # irc=(calcfc,maxpoints=30) b3lyp/6-311g(d) scrf=(smd,solvent=generic,
 read) temperature=298.15
 ----------------------------------------------------------------------

 --------------
 IRC - reacao 1
 --------------
 Symbolic Z-matrix:
 Charge =  0 Multiplicity = 2

 SCF Done:  E(UB3LYP) =  -1468.91188636     A.U. after   23 cycles
 SCF Done:  E(UB3LYP) =  -1468.91205401     A.U. after   16 cycles
 SCF Done:  E(UB3LYP) =  -1468.91265646     A.U. after   16 cycles
 SCF Done:  E(UB3LYP) =  -1468.91392084     A.U. after   16 cycles
 SCF Done:  E(UB3LYP) =  -1468.91601089     A.U. after   16 cycles
 SCF Done:  E(UB3LYP) =  -1468.91904521     A.U. after   16 cycles
 SCF Done:  E(UB3LYP) =  -1468.92312695     A.U. after   15 cycles
 SCF Done:  E(UB3LYP) =  -1468.92826120     A.U. after   15 cycles
 SCF Done:  E(UB3LYP) =  -1468.93431331     A.U. after   15 cycles
 SCF Done:  E(UB3LYP) =  -1468.94100041     A.U. after   15 cycles
 SCF Done:  E(UB3LYP) =  -1468.91800178     A.U. after   11 cycles
 SCF Done:  E(UB3LYP) =  -1468.91809317     A.U. after   10 cycles
 SCF Done:  E(UB3LYP) =  -1468.91817524     A.U. after    9 cycles
 SCF Done:  E(UB3LYP) =  -1468.91825019     A.U. after    9 cycles
 SCF Done:  E(UB3LYP) =  -1468.91831892     A.U. after    9 cycles
 SCF Done:  E(UB3LYP) =  -1468.91838154     A.U. after    9 cycles
 SCF Done:  E(UB3LYP) =  -1468.91843904     A.U. after    9 cycles
 SCF Done:  E(UB3LYP) =  -1468.91849264     A.U. after    8 cycles
 SCF Done:  E(UB3LYP) =  -1468.91854255     A.U. after    8 cycles
 SCF Done:  E(UB3LYP) =  -1468.91858905     A.U. after    8 cycles

                          Input orientation:
 ---------------------------------------------------------------------
 Center     Atomic      Atomic             Coordinates (Angstroms)
 Number     Number       Type             X           Y           Z
 ---------------------------------------------------------------------
      1          6           0        2.216559    0.889788    0.809459
      2          1           0        1.788964    1.887758    0.806741
      3          6           0        1.503435   -0.107194    1.367782
      4          1           0        1.872347   -1.125138    1.431848
      5          6           0        0.166306    0.047741    1.966273
      6          8           0       -0.417187   -0.933162    2.404093
      7          6           0        3.551157    0.835085    0.214126
      8          6           0        4.282203    2.031463    0.142905
      9          6           0        4.215463   -0.313618   -0.256187
     10          6           0        5.582347    2.076408   -0.340086
     11          1           0        3.815101    2.947433    0.487064
     12          6           0        5.517577   -0.310783   -0.742418
     13          1           0        5.140749   -0.935157    3.034976
     14          6           0        6.212943    0.915443   -0.783153
     15          1           0        6.111703    3.023723   -0.385805
     16          8           0        7.465829    0.892533   -1.292924
     17          1           0        7.840496    1.785112   -1.290354
     18          8           0        6.044419   -1.455000   -1.253541
     19          6           0        7.122983   -2.044411   -0.495973
     20          1           0        6.799633   -2.252931    0.526286
     21          1           0        7.360839   -2.978521   -1.002009
     22          1           0        7.998316   -1.394052   -0.491353
     23          6           0       -3.126534    0.509019    0.917729
     24          1           0       -2.729146    0.062898    1.825033
     25          6           0       -2.388826    1.448409    0.287055
     26          1           0       -2.726572    1.906244   -0.638315
     27          6           0       -1.079233    1.932073    0.729612
     28          8           0       -0.456706    2.740769    0.052643
     29          6           0       -4.420342   -0.017554    0.506225
     30          6           0       -5.021084   -1.021064    1.282822
     31          6           0       -5.112550    0.435152   -0.634564
     32          6           0       -6.252293   -1.559493    0.930953
     33          1           0       -4.512865   -1.389440    2.167991
     34          6           0       -6.339658   -0.091565   -0.997661
     35          1           0       -4.696054    1.207245   -1.271454
     36          6           0       -6.919729   -1.110538   -0.208882
     37          1           0       -6.698941   -2.343927    1.536163
     38          8           0       -8.110666   -1.618605   -0.614485
     39          1           0       -8.397866   -2.308644    0.000141
     40          8           0       -6.938103    0.339456   -2.151916
     41          6           0       -8.143692    1.100866   -1.981348
     42          1           0       -7.954240    1.992282   -1.374452
     43          1           0       -8.452287    1.404736   -2.981233
     44          1           0       -8.933809    0.503166   -1.523330
     45          6           0       -0.485265    1.431884    2.056015
     46          1           0       -1.258691    1.364348    2.820789
     47          1           0        0.245146    2.176488    2.373685
     48          8           0        3.856264   -2.507984    0.405516
     49          8           0        2.637467   -1.703366   -1.199605
     50          7           0        3.512369   -1.613815   -0.354288
 ---------------------------------------------------------------------

 Alpha  occ. eigenvalues --  -19.17106 -19.16466 -19.16458 -19.16148 -19.15001
 Alpha  occ. eigenvalues --  -19.13452 -19.10708 -19.10217 -14.55962 -10.26409
 Alpha  occ. eigenvalues --  -10.26131 -10.25974 -10.25569 -10.24755 -10.24378
 Alpha  occ. eigenvalues --  -10.23192 -10.21258 -10.21142 -10.20651 -10.20294
 Alpha  occ. eigenvalues --  -10.19630 -10.19410 -10.19291 -10.18751 -10.18227
 Alpha  occ. eigenvalues --  -10.18220 -10.17995 -10.17922 -10.17675 -10.17219
 Alpha  occ. eigenvalues --   -1.24675  -1.09432  -1.08233  -1.07301  -1.06544
 Alpha  occ. eigenvalues --   -1.04956  -1.04403  -1.03724  -0.89575  -0.86802
 Alpha  occ. eigenvalues --   -0.82063  -0.81229  -0.80869  -0.77515  -0.76186
 Alpha  occ. eigenvalues --   -0.75562  -0.73239  -0.71776  -0.69679  -0.68926
 Alpha  occ. eigenvalues --   -0.66274  -0.65646  -0.62590  -0.62185  -0.61245
 Alpha  occ. eigenvalues --   -0.58665  -0.57733  -0.56706  -0.55860  -0.54607
 Alpha  occ. eigenvalues --   -0.52958  -0.52769  -0.52734  -0.51737  -0.51234
 Alpha  occ. eigenvalues --   -0.50513  -0.49975  -0.48699  -0.48161  -0.47477
 Alpha  occ. eigenvalues --   -0.47376  -0.46235  -0.45709  -0.44846  -0.44330
 Alpha  occ. eigenvalues --   -0.43973  -0.43965  -0.43047  -0.42872  -0.42324
 Alpha  occ. eigenvalues --   -0.41918  -0.41238  -0.40559  -0.39731  -0.39405
 Alpha  occ. eigenvalues --   -0.38831  -0.38572  -0.37890  -0.37655  -0.37506
 Alpha  occ. eigenvalues --   -0.36866  -0.36448  -0.35905  -0.35824  -0.34170
 Alpha  occ. eigenvalues --   -0.32953  -0.32202  -0.31858  -0.30504  -0.29896
 Alpha  occ. eigenvalues --   -0.29511  -0.29141  -0.28379  -0.26550  -0.26433
 Alpha  occ. eigenvalues --   -0.25234  -0.24858  -0.23344  -0.22026
 Alpha virt. eigenvalues --   -0.08986  -0.07989  -0.06878  -0.02787  -0.01309
 Alpha virt. eigenvalues --   -0.00317   0.01347   0.03285   0.03846   0.05400
 Alpha virt. eigenvalues --    0.05960   0.06474   0.07035   0.07474   0.07706

  Beta  occ. eigenvalues --  -19.17106 -19.16463 -19.16450 -19.16148 -19.15000
  Beta  occ. eigenvalues --  -19.13452 -19.10708 -19.10217 -14.55962 -10.26409
  Beta  occ. eigenvalues --  -10.26131 -10.25974 -10.25567 -10.24755 -10.24374
  Beta  occ. eigenvalues --  -10.23192 -10.21255 -10.21140 -10.20651 -10.20293
  Beta  occ. eigenvalues --  -10.19630 -10.19410 -10.19291 -10.18751 -10.18227
  Beta  occ. eigenvalues --  -10.18220 -10.17995 -10.17922 -10.17675 -10.17219
  Beta  occ. eigenvalues --   -1.24669  -1.09432  -1.08233  -1.07292  -1.06542
  Beta  occ. eigenvalues --   -1.04956  -1.04403  -1.03724  -0.89570  -0.86802
  Beta  occ. eigenvalues --   -0.82060  -0.81226  -0.80869  -0.77513  -0.76186
  Beta  occ. eigenvalues --   -0.75561  -0.73238  -0.71773  -0.69675  -0.68926
  Beta  occ. eigenvalues --   -0.66273  -0.65643  -0.62589  -0.62185  -0.61241
  Beta  occ. eigenvalues --   -0.58665  -0.57724  -0.56705  -0.55860  -0.54605
  Beta  occ. eigenvalues --   -0.52956  -0.52764  -0.52730  -0.51735  -0.51234
  Beta  occ. eigenvalues --   -0.50511  -0.49974  -0.48698  -0.48159  -0.47472
  Beta  occ. eigenvalues --   -0.47375  -0.46235  -0.45709  -0.44845  -0.44329
  Beta  occ. eigenvalues --   -0.43971  -0.43963  -0.43047  -0.42871  -0.42322
  Beta  occ. eigenvalues --   -0.41918  -0.41238  -0.40557  -0.39728  -0.39403
  Beta  occ. eigenvalues --   -0.38829  -0.38572  -0.37880  -0.37647  -0.37502
  Beta  occ. eigenvalues --   -0.36862  -0.36447  -0.35903  -0.35804  -0.34170
  Beta  occ. eigenvalues --   -0.32944  -0.32061  -0.31834  -0.29919  -0.29524
  Beta  occ. eigenvalues --   -0.29141  -0.28379  -0.26552  -0.26445  -0.25234
  Beta  occ. eigenvalues --   -0.24858  -0.23343  -0.22026
  Beta virt. eigenvalues --   -0.08985  -0.08030  -0.06916  -0.05730  -0.02775
  Beta virt. eigenvalues --   -0.01309  -0.00306   0.01348   0.03310   0.03846
  Beta virt. eigenvalues --    0.05410   0.05962   0.06475   0.07045   0.07471

 Mulliken charges and spin densities:
               1          2
     1  C   -0.195619   0.001688
     2  H    0.248400  -0.000047
     3  C   -0.301011  -0.000678
     4  H    0.213995  -0.000185
     5  C    0.358752   0.000118
     6  O   -0.337728  -0.000031
     7  C    0.126982  -0.000039
     8  C   -0.246772   0.000009
     9  C    0.083986  -0.001051
    10  C   -0.222813   0.000202
    11  H    0.240861  -0.000023
    12  C    0.233689   0.001389
    13  H   -0.001684   0.994621
    14  C    0.247370   0.000055
    15  H    0.247679  -0.000003
    16  O   -0.560212   0.000015
    17  H    0.433627  -0.000002
    18  O   -0.368846   0.000352
    19  C   -0.459046   0.002217
    20  H    0.221509  -0.001822
    21  H    0.234455   0.000140
    22  H    0.232914   0.000039
    23  C   -0.210899   0.000001
    24  H    0.239530   0.000000
    25  C   -0.320118   0.000003
    26  H    0.219733   0.000000
    27  C    0.364102   0.000011
    28  O   -0.346912  -0.000001
    29  C    0.045529  -0.000000
    30  C   -0.229038   0.000000
    31  C   -0.247974   0.000000
    32  C   -0.256936  -0.000000
    33  H    0.229796  -0.000000
    34  C    0.198131  -0.000000
    35  H    0.228307  -0.000000
    36  C    0.243591   0.000000
    37  H    0.237745   0.000000
    38  O   -0.564356   0.000000
    39  H    0.427196  -0.000000
    40  O   -0.367621  -0.000000
    41  C   -0.456402  -0.000000
    42  H    0.209686  -0.000000
    43  H    0.226240  -0.000000
    44  H    0.225686   0.000000
    45  C   -0.710548   0.000014
    46  H    0.273443  -0.000004
    47  H    0.273473   0.000002
    48  O   -0.257768   0.000916
    49  O   -0.257637   0.000868
    50  N    0.153533   0.001226
 Sum of Mulliken charges =  -0.00000   1.00000

 Dipole moment (field-independent basis, Debye):
    X=              1.4251    Y=              4.4824    Z=              3.2435  Tot=              5.7135
 Quadrupole moment (field-independent basis, Debye-Ang):
   XX=            -64.8207   YY=           -167.6002   ZZ=           -181.5790
   XY=             37.0641   XZ=            -11.7328   YZ=             -3.5333

  Exact polarizability:   0.000   0.000   0.000   0.000   0.000   0.000
 Approx polarizability: 639.778 142.468 452.579 -41.704 -72.228 350.063

 Normal termination of Gaussian 16 at Thu Oct 24 22:41:37 2024.
