 Gaussian 16, Revision A.03,
 Gaussian 16:  ES64L-G16RevA.03 25-Dec-2016

 ----------------------------------------------------------------------
 # pop=nbo b3lyp/6-311g(d) scrf=(smd,solvent=generic,read) temperature=
 298.15 Geom=Check Guess=Read
 ----------------------------------------------------------------------

 ----------
 Reagente 1
 ----------
 Structure from the checkpoint file:  "CURCUMIN-Prod-1-B3LYP-6-311G-D-298-NBO.chk"
 Charge =  0 Multiplicity = 2

                         Standard orientation:
 ---------------------------------------------------------------------
 Center     Atomic      Atomic             Coordinates (Angstroms)
 Number     Number       Type             X           Y           Z
 ---------------------------------------------------------------------
      1          6           0        2.224401    0.623017    0.937426
      2          1           0        1.775076    1.584215    1.169033
      3          6           0        1.519863   -0.487635    1.231263
      4          1           0        1.890822   -1.489616    1.049555
      5          6           0        0.174732   -0.489876    1.831775
      6          8           0       -0.413675   -1.549305    1.992211
      7          6           0        3.554241    0.750166    0.345207
      8          6           0        4.199946    1.992948    0.459923
      9          6           0        4.290875   -0.252759   -0.311934
     10          6           0        5.479157    2.213270   -0.029272
     11          1           0        3.677841    2.804512    0.953931
     12          6           0        5.567811   -0.069974   -0.825952
     13          1           0        5.333471   -2.771801    3.577202
     14          6           0        6.175972    1.192780   -0.674424
     15          1           0        5.939174    3.191454    0.077041
     16          8           0        7.412552    1.346858   -1.199683
     17          1           0        7.724891    2.251184   -1.051801
     18          8           0        6.147445   -1.079865   -1.528969
     19          6           0        7.297510   -1.701111   -0.915806
     20          1           0        7.038958   -2.087011    0.072964
     21          1           0        7.569039   -2.526828   -1.571203
     22          1           0        8.128721   -0.999222   -0.842533
     23          6           0       -3.146267    0.229125    0.971841
     24          1           0       -2.748397   -0.431541    1.737016
     25          6           0       -2.401815    1.286600    0.581819
     26          1           0       -2.743651    1.960472   -0.198687
     27          6           0       -1.082712    1.636972    1.112586
     28          8           0       -0.458865    2.581382    0.644695
     29          6           0       -4.451791   -0.163438    0.459795
     30          6           0       -5.065775   -1.313724    0.980069
     31          6           0       -5.143783    0.560791   -0.531140
     32          6           0       -6.309972   -1.730906    0.524606
     33          1           0       -4.558518   -1.892101    1.745195
     34          6           0       -6.383613    0.157648   -0.995140
     35          1           0       -4.717290    1.455358   -0.970332
     36          6           0       -6.977756   -1.010336   -0.466068
     37          1           0       -6.766611   -2.629845    0.930373
     38          8           0       -8.181953   -1.385524   -0.966458
     39          1           0       -8.477685   -2.197615   -0.531161
     40          8           0       -6.980886    0.863282   -2.005828
     41          6           0       -8.173150    1.578933   -1.646771
     42          1           0       -7.968096    2.290375   -0.840091
     43          1           0       -8.477422    2.124566   -2.539552
     44          1           0       -8.972951    0.899948   -1.345915
     45          6           0       -0.478409    0.825593    2.269390
     46          1           0       -1.244668    0.567994    2.999997
     47          1           0        0.253826    1.470440    2.755228
     48          8           0        4.093055   -2.512346    0.146925
     49          8           0        2.899298   -1.688184   -1.467535
     50          7           0        3.712986   -1.593405   -0.564897
 ---------------------------------------------------------------------

 SCF Done:  E(UB3LYP) =  -1468.91905236     A.U. after    1 cycles

 The electronic state is 2-A.
 Alpha  occ. eigenvalues --  -19.17168 -19.16659 -19.16604 -19.16152 -19.15105
 Alpha  occ. eigenvalues --  -19.13459 -19.10683 -19.10232 -14.56081 -10.26384
 Alpha  occ. eigenvalues --  -10.26190 -10.25991 -10.25551 -10.24761 -10.24394
 Alpha  occ. eigenvalues --  -10.23198 -10.21302 -10.21183 -10.20650 -10.20310
 Alpha  occ. eigenvalues --  -10.19645 -10.19433 -10.19274 -10.18753 -10.18225
 Alpha  occ. eigenvalues --  -10.18215 -10.17995 -10.17920 -10.17668 -10.17234
 Alpha  occ. eigenvalues --   -1.24840  -1.09481  -1.08233  -1.07449  -1.06643
 Alpha  occ. eigenvalues --   -1.04958  -1.04385  -1.03737  -0.89611  -0.86807
 Alpha  occ. eigenvalues --   -0.82071  -0.81288  -0.80875  -0.77545  -0.76190
 Alpha  occ. eigenvalues --   -0.75573  -0.73251  -0.71820  -0.69744  -0.68928
 Alpha  occ. eigenvalues --   -0.66285  -0.65677  -0.62599  -0.62189  -0.61376
 Alpha  occ. eigenvalues --   -0.58672  -0.57846  -0.56770  -0.55879  -0.54639
 Alpha  occ. eigenvalues --   -0.53000  -0.52861  -0.52817  -0.51736  -0.51228
 Alpha  occ. eigenvalues --   -0.50499  -0.49995  -0.48699  -0.48168  -0.47522
 Alpha  occ. eigenvalues --   -0.47387  -0.46236  -0.45751  -0.44829  -0.44342
 Alpha  occ. eigenvalues --   -0.44001  -0.43970  -0.43049  -0.42876  -0.42382
 Alpha  occ. eigenvalues --   -0.41922  -0.41239  -0.40557  -0.39624  -0.39394
 Alpha  occ. eigenvalues --   -0.38872  -0.38562  -0.37966  -0.37687  -0.37529
 Alpha  occ. eigenvalues --   -0.36885  -0.36468  -0.35909  -0.35839  -0.34178
 Alpha  occ. eigenvalues --   -0.33020  -0.32217  -0.31961  -0.30593  -0.30113
 Alpha  occ. eigenvalues --   -0.29645  -0.29159  -0.28393  -0.26529  -0.26412
 Alpha  occ. eigenvalues --   -0.25227  -0.24876  -0.23345  -0.22031
 Alpha virt. eigenvalues --   -0.08865  -0.08161  -0.06967  -0.02864  -0.01309
 Alpha virt. eigenvalues --   -0.00286   0.01380   0.03265   0.03849   0.05381
 Alpha virt. eigenvalues --    0.06043   0.06463   0.07039   0.07453   0.07624

  Beta  occ. eigenvalues --  -19.17168 -19.16658 -19.16601 -19.16152 -19.15104
  Beta  occ. eigenvalues --  -19.13459 -19.10683 -19.10232 -14.56081 -10.26384
  Beta  occ. eigenvalues --  -10.26190 -10.25991 -10.25551 -10.24761 -10.24394
  Beta  occ. eigenvalues --  -10.23198 -10.21301 -10.21183 -10.20650 -10.20310
  Beta  occ. eigenvalues --  -10.19645 -10.19433 -10.19274 -10.18753 -10.18225
  Beta  occ. eigenvalues --  -10.18215 -10.17995 -10.17920 -10.17668 -10.17234
  Beta  occ. eigenvalues --   -1.24838  -1.09481  -1.08233  -1.07446  -1.06642
  Beta  occ. eigenvalues --   -1.04958  -1.04384  -1.03737  -0.89610  -0.86807
  Beta  occ. eigenvalues --   -0.82070  -0.81288  -0.80875  -0.77545  -0.76190
  Beta  occ. eigenvalues --   -0.75572  -0.73251  -0.71820  -0.69743  -0.68928
  Beta  occ. eigenvalues --   -0.66285  -0.65677  -0.62599  -0.62189  -0.61376
  Beta  occ. eigenvalues --   -0.58672  -0.57843  -0.56770  -0.55879  -0.54639
  Beta  occ. eigenvalues --   -0.53000  -0.52860  -0.52816  -0.51736  -0.51228
  Beta  occ. eigenvalues --   -0.50498  -0.49995  -0.48698  -0.48167  -0.47521
  Beta  occ. eigenvalues --   -0.47387  -0.46236  -0.45751  -0.44828  -0.44342
  Beta  occ. eigenvalues --   -0.44001  -0.43970  -0.43048  -0.42876  -0.42382
  Beta  occ. eigenvalues --   -0.41922  -0.41239  -0.40557  -0.39624  -0.39394
  Beta  occ. eigenvalues --   -0.38872  -0.38562  -0.37966  -0.37687  -0.37529
  Beta  occ. eigenvalues --   -0.36885  -0.36468  -0.35909  -0.35838  -0.34178
  Beta  occ. eigenvalues --   -0.33017  -0.32185  -0.31956  -0.30120  -0.29649
  Beta  occ. eigenvalues --   -0.29159  -0.28393  -0.26529  -0.26411  -0.25227
  Beta  occ. eigenvalues --   -0.24876  -0.23345  -0.22031
  Beta virt. eigenvalues --   -0.08867  -0.08168  -0.06969  -0.03837  -0.02862
  Beta virt. eigenvalues --   -0.01309  -0.00282   0.01381   0.03270   0.03849
  Beta virt. eigenvalues --    0.05389   0.06040   0.06464   0.07043   0.07453

 Mulliken charges and spin densities:
               1          2
     1  C   -0.194292   0.000178
     2  H    0.250797  -0.000007
     3  C   -0.307345   0.000074
     4  H    0.213405  -0.000228
     5  C    0.359098   0.000021
     6  O   -0.337295   0.000008
     7  C    0.126732  -0.000002
     8  C   -0.253830   0.000038
     9  C    0.087719  -0.000210
    10  C   -0.221688  -0.000013
    11  H    0.241598  -0.000002
    12  C    0.238356   0.000109
    13  H   -0.000867   0.998846
    14  C    0.246296   0.000029
    15  H    0.247788   0.000001
    16  O   -0.559785   0.000005
    17  H    0.434180  -0.000000
    18  O   -0.370053   0.000080
    19  C   -0.459120   0.000921
    20  H    0.220863  -0.000758
    21  H    0.235499   0.000021
    22  H    0.233706   0.000013
    23  C   -0.208409   0.000000
    24  H    0.237778  -0.000000
    25  C   -0.321280   0.000001
    26  H    0.219629   0.000000
    27  C    0.364723   0.000001
    28  O   -0.346898   0.000000
    29  C    0.044866   0.000000
    30  C   -0.228397   0.000000
    31  C   -0.248493   0.000000
    32  C   -0.256788  -0.000000
    33  H    0.229867   0.000000
    34  C    0.198057  -0.000000
    35  H    0.228417  -0.000000
    36  C    0.243434   0.000000
    37  H    0.237969  -0.000000
    38  O   -0.564396   0.000000
    39  H    0.427305  -0.000000
    40  O   -0.367627  -0.000000
    41  C   -0.456363  -0.000000
    42  H    0.209667  -0.000000
    43  H    0.226293  -0.000000
    44  H    0.225772   0.000000
    45  C   -0.712145   0.000001
    46  H    0.274027  -0.000001
    47  H    0.274062  -0.000000
    48  O   -0.260608   0.000348
    49  O   -0.255147   0.000256
    50  N    0.152924   0.000270
 Sum of Mulliken charges =  -0.00000   1.00000

 Dipole moment (field-independent basis, Debye):
    X=              1.0105    Y=              4.2254    Z=              3.6814  Tot=              5.6945
 Quadrupole moment (field-independent basis, Debye-Ang):
   XX=            -66.6423   YY=           -166.3674   ZZ=           -182.2506
   XY=             41.4183   XZ=             -6.1760   YZ=             -1.1746

 Summary of Natural Population Analysis:

                                       Natural Population
                Natural  -----------------------------------------------
    Atom  No    Charge         Core      Valence    Rydberg      Total
 -----------------------------------------------------------------------
      C    1   -0.06196      0.99950     2.05447    0.00799     3.06196
      H    2    0.11156      0.00000     0.38602    0.00242     0.38844
      C    3   -0.14287      0.99947     2.13411    0.00929     3.14287
      H    4    0.10480      0.00000     0.39250    0.00270     0.39520
      C    5    0.28227      0.99962     1.69819    0.01992     2.71773
      O    6   -0.29041      0.99988     3.28582    0.00471     4.29041
      C    7   -0.05641      0.99942     2.04895    0.00803     3.05641
      C    8   -0.06992      0.99953     2.06279    0.00761     3.06992
      C    9    0.03953      0.99932     1.94889    0.01227     2.96047
      C   10   -0.13313      0.99951     2.12573    0.00788     3.13313
      H   11    0.11368      0.00000     0.38548    0.00085     0.38632
      C   12    0.13727      0.99929     1.85122    0.01221     2.86273
      H   13    0.49947      0.00000     0.00035    0.00018     0.00053
      C   14    0.16324      0.99936     1.82613    0.01127     2.83676
      H   15    0.11494      0.00000     0.38389    0.00117     0.38506
      O   16   -0.32949      0.99987     3.32526    0.00437     4.32949
      H   17    0.24271      0.00000     0.25673    0.00056     0.25729
      O   18   -0.27928      0.99986     3.27418    0.00524     4.27928
      C   19   -0.09390      0.99959     2.08616    0.00815     3.09390
      H   20    0.08585      0.00000     0.41299    0.00116     0.41415
      H   21    0.09409      0.00000     0.40544    0.00047     0.40591
      H   22    0.08857      0.00000     0.41047    0.00096     0.41143
      C   23   -0.05329      0.99950     2.04565    0.00813     3.05329
      H   24    0.10693      0.00000     0.39078    0.00229     0.39307
      C   25   -0.15357      0.99948     2.14497    0.00912     3.15357
      H   26    0.10640      0.00000     0.39168    0.00192     0.39360
      C   27    0.27915      0.99961     1.70133    0.01990     2.72085
      O   28   -0.29724      0.99988     3.29264    0.00471     4.29724
      C   29   -0.05765      0.99947     2.05017    0.00801     3.05765
      C   30   -0.07912      0.99953     2.07188    0.00772     3.07912
      C   31   -0.10020      0.99948     2.09301    0.00771     3.10020
      C   32   -0.14065      0.99952     2.13307    0.00806     3.14065
      H   33    0.10941      0.00000     0.38969    0.00090     0.39059
      C   34    0.13414      0.99933     1.85443    0.01210     2.86586
      H   35    0.11274      0.00000     0.38582    0.00143     0.38726
      C   36    0.15760      0.99936     1.83179    0.01125     2.84240
      H   37    0.11093      0.00000     0.38781    0.00126     0.38907
      O   38   -0.33293      0.99987     3.32867    0.00439     4.33293
      H   39    0.24020      0.00000     0.25919    0.00062     0.25980
      O   40   -0.28208      0.99986     3.27671    0.00551     4.28208
      C   41   -0.09427      0.99959     2.08651    0.00816     3.09427
      H   42    0.08159      0.00000     0.41736    0.00105     0.41841
      H   43    0.09106      0.00000     0.40843    0.00051     0.40894
      H   44    0.08648      0.00000     0.41243    0.00108     0.41352
      C   45   -0.27948      0.99954     2.27229    0.00765     3.27948
      H   46    0.11815      0.00000     0.38062    0.00123     0.38185
      H   47    0.11786      0.00000     0.38091    0.00122     0.38214
      O   48   -0.18682      0.99989     3.18033    0.00660     4.18682
      O   49   -0.17721      0.99989     3.17073    0.00658     4.17721
      N   50    0.26126      0.99969     2.21025    0.02880     3.23874
 =======================================================================
   * Total *    0.50000     29.98772    77.70492    0.30735   108.00000

 1\1\GINC-N02\SP\UB3LYP\6-311G(d)\C21H20N1O8(2)\UNKNOWN\06-Nov-2024\0\\
 # pop=nbo b3lyp/6-311g(d) scrf=(smd,solvent=generic,read) temperature=
 298.15 Geom=Check Guess=Read\\Reagente 1\\0,2\C,0,2.2181617273,0.83202
 74486,0.7725790665\H,0,1.7735181912,1.822833046,0.7668367742\C,0,1.508
 6857038,-0.1724405186,1.3238953008\H,0,1.8748146781,-1.190505174,1.387
 8341691\C,0,0.1640487977,-0.0242842969,1.9069899842\O,0,-0.4291667953,
 -1.0115558259,2.3165522901\C,0,3.5480968344,0.8071953824,0.1675849433\
 C,0,4.1996905706,2.0381671287,-0.0187913339\C,0,4.2795042264,-0.327499

 Normal termination of Gaussian 16 at Wed Nov  6 14:13:21 2024.
