 Gaussian 16, Revision A.03,
 Gaussian 16:  ES64L-G16RevA.03 25-Dec-2016

 ----------------------------------------------------------------------
 # freq=noraman M062X/6-311g(d) scrf=(smd,solvent=generic,read) scf=(qc
 ,maxcycle=10000) temperature=363.15
 ----------------------------------------------------------------------

 ----------
 Reagente 1
 ----------
 Symbolic Z-matrix:
 Charge =  0 Multiplicity = 2

                         Standard orientation:
 ---------------------------------------------------------------------
 Center     Atomic      Atomic             Coordinates (Angstroms)
 Number     Number       Type             X           Y           Z
 ---------------------------------------------------------------------
      1          6           0        2.171164    1.304693    0.443851
      2          1           0        1.803269    2.247282    0.047782
      3          6           0        1.459923    0.669425    1.383926
      4          1           0        1.789602   -0.252754    1.852999
      5          6           0        0.168990    1.163253    1.908970
      6          8           0       -0.415538    0.533023    2.763964
      7          6           0        3.463577    0.893451   -0.114721
      8          6           0        4.323383    1.877681   -0.608559
      9          6           0        3.945704   -0.418877   -0.166253
     10          6           0        5.585216    1.571517   -1.098596
     11          1           0        3.994543    2.910568   -0.596195
     12          6           0        5.189547   -0.768635   -0.661268
     13          1           0        4.966436   -1.041929    5.350106
     14          6           0        6.030094    0.254658   -1.129476
     15          1           0        6.229624    2.360814   -1.472924
     16          8           0        7.229117   -0.123724   -1.613413
     17          1           0        7.722093    0.647547   -1.923485
     18          8           0        5.537363   -2.074514   -0.751736
     19          6           0        6.511875   -2.485750    0.217619
     20          1           0        6.130943   -2.313695    1.226052
     21          1           0        6.664391   -3.550830    0.057991
     22          1           0        7.451084   -1.951277    0.069150
     23          6           0       -2.910993    1.007235    0.656737
     24          1           0       -2.570316    1.062485    1.687841
     25          6           0       -2.185039    1.601672   -0.303806
     26          1           0       -2.474468    1.562077   -1.349590
     27          6           0       -0.937961    2.341944   -0.059606
     28          8           0       -0.332066    2.849897   -0.981669
     29          6           0       -4.146473    0.250195    0.466315
     30          6           0       -4.750602   -0.343236    1.577347
     31          6           0       -4.758841    0.092748   -0.787658
     32          6           0       -5.920652   -1.080532    1.447400
     33          1           0       -4.294349   -0.234305    2.555491
     34          6           0       -5.920067   -0.639701   -0.929967
     35          1           0       -4.332956    0.531498   -1.683318
     36          6           0       -6.511969   -1.238343    0.199059
     37          1           0       -6.375861   -1.546638    2.316114
     38          8           0       -7.639962   -1.955412   -0.001952
     39          1           0       -7.949767   -2.322066    0.836284
     40          8           0       -6.470536   -0.811955   -2.166622
     41          6           0       -7.666641   -0.061135   -2.372640
     42          1           0       -7.466526    1.009408   -2.268678
     43          1           0       -7.992785   -0.272289   -3.389543
     44          1           0       -8.446602   -0.361224   -1.670414
     45          6           0       -0.408344    2.468129    1.369789
     46          1           0       -1.206308    2.771397    2.047349
     47          1           0        0.357100    3.244531    1.361072
     48          8           0        3.441202   -2.158680    1.246968
     49          8           0        2.136373   -1.805815   -0.426356
     50          7           0        3.103126   -1.555072    0.251665
 ---------------------------------------------------------------------

 SCF Done:  E(UM062X) =  -1468.34292211     a.u. after   14 cycles

 The electronic state is 2-A.
 Alpha  occ. eigenvalues --  -19.66919 -19.66802 -19.66661 -19.65857 -19.65144
 Alpha  occ. eigenvalues --  -19.63420 -19.61714 -19.61183 -15.00804 -10.63946
 Alpha  occ. eigenvalues --  -10.63507 -10.63104 -10.62532 -10.61555 -10.61469
 Alpha  occ. eigenvalues --  -10.59975 -10.58103 -10.57877 -10.57437 -10.57254
 Alpha  occ. eigenvalues --  -10.56648 -10.56441 -10.56242 -10.55517 -10.55403
 Alpha  occ. eigenvalues --  -10.55085 -10.54835 -10.54761 -10.54698 -10.54228
 Alpha  occ. eigenvalues --   -1.38632  -1.21811  -1.20457  -1.19862  -1.19019
 Alpha  occ. eigenvalues --   -1.17692  -1.17361  -1.16983  -1.00441  -0.97310
 Alpha  occ. eigenvalues --   -0.92484  -0.91393  -0.91059  -0.87491  -0.85724
 Alpha  occ. eigenvalues --   -0.85226  -0.82722  -0.81056  -0.78665  -0.77882
 Alpha  occ. eigenvalues --   -0.74895  -0.74361  -0.71106  -0.70654  -0.69743
 Alpha  occ. eigenvalues --   -0.66743  -0.66739  -0.65192  -0.63596  -0.62819
 Alpha  occ. eigenvalues --   -0.61563  -0.60788  -0.60362  -0.59526  -0.58784
 Alpha  occ. eigenvalues --   -0.58486  -0.57823  -0.56529  -0.55515  -0.55338
 Alpha  occ. eigenvalues --   -0.54553  -0.54031  -0.53092  -0.52638  -0.52131
 Alpha  occ. eigenvalues --   -0.51279  -0.50764  -0.50527  -0.50171  -0.49690
 Alpha  occ. eigenvalues --   -0.49291  -0.48519  -0.47441  -0.47330  -0.46471
 Alpha  occ. eigenvalues --   -0.45681  -0.45456  -0.44662  -0.44395  -0.44112
 Alpha  occ. eigenvalues --   -0.43425  -0.43192  -0.42569  -0.42440  -0.40400
 Alpha  occ. eigenvalues --   -0.39840  -0.39523  -0.39018  -0.36572  -0.36319
 Alpha  occ. eigenvalues --   -0.35793  -0.35301  -0.34952  -0.33980  -0.32345
 Alpha  occ. eigenvalues --   -0.32171  -0.30726  -0.28380  -0.26804
 Alpha virt. eigenvalues --   -0.05211  -0.03650  -0.02679   0.00966   0.02290
 Alpha virt. eigenvalues --    0.03662   0.05359   0.06894   0.07469   0.08872
 Alpha virt. eigenvalues --    0.09903   0.10068   0.10378   0.11029   0.11824

  Beta  occ. eigenvalues --  -19.66919 -19.66802 -19.66661 -19.65857 -19.65144
  Beta  occ. eigenvalues --  -19.63420 -19.61714 -19.61183 -15.00804 -10.63946
  Beta  occ. eigenvalues --  -10.63507 -10.63104 -10.62532 -10.61555 -10.61469
  Beta  occ. eigenvalues --  -10.59975 -10.58103 -10.57877 -10.57437 -10.57254
  Beta  occ. eigenvalues --  -10.56648 -10.56441 -10.56242 -10.55517 -10.55403
  Beta  occ. eigenvalues --  -10.55085 -10.54835 -10.54761 -10.54698 -10.54228
  Beta  occ. eigenvalues --   -1.38632  -1.21811  -1.20457  -1.19862  -1.19019
  Beta  occ. eigenvalues --   -1.17692  -1.17361  -1.16983  -1.00441  -0.97310
  Beta  occ. eigenvalues --   -0.92484  -0.91393  -0.91059  -0.87491  -0.85724
  Beta  occ. eigenvalues --   -0.85226  -0.82722  -0.81056  -0.78665  -0.77882
  Beta  occ. eigenvalues --   -0.74895  -0.74361  -0.71106  -0.70654  -0.69743
  Beta  occ. eigenvalues --   -0.66743  -0.66739  -0.65192  -0.63596  -0.62819
  Beta  occ. eigenvalues --   -0.61563  -0.60788  -0.60362  -0.59526  -0.58784
  Beta  occ. eigenvalues --   -0.58486  -0.57823  -0.56529  -0.55515  -0.55338
  Beta  occ. eigenvalues --   -0.54553  -0.54031  -0.53092  -0.52638  -0.52131
  Beta  occ. eigenvalues --   -0.51279  -0.50764  -0.50527  -0.50171  -0.49690
  Beta  occ. eigenvalues --   -0.49291  -0.48519  -0.47441  -0.47330  -0.46471
  Beta  occ. eigenvalues --   -0.45681  -0.45456  -0.44662  -0.44395  -0.44112
  Beta  occ. eigenvalues --   -0.43425  -0.43192  -0.42569  -0.42440  -0.40400
  Beta  occ. eigenvalues --   -0.39839  -0.39523  -0.39017  -0.36571  -0.35793
  Beta  occ. eigenvalues --   -0.35301  -0.34952  -0.33981  -0.32345  -0.32171
  Beta  occ. eigenvalues --   -0.30726  -0.28380  -0.26804
  Beta virt. eigenvalues --   -0.05211  -0.03650  -0.02679   0.00967   0.02290
  Beta virt. eigenvalues --    0.03662   0.05359   0.06894   0.07469   0.08873
  Beta virt. eigenvalues --    0.09903   0.10069   0.10379   0.11033   0.11824

 Mulliken charges and spin densities:
               1          2
     1  C   -0.207722  -0.000006
     2  H    0.284979   0.000004
     3  C   -0.330310  -0.000086
     4  H    0.253305   0.000139
     5  C    0.386881   0.000008
     6  O   -0.351175  -0.000007
     7  C    0.095212   0.000003
     8  C   -0.261040   0.000002
     9  C    0.087934  -0.000006
    10  C   -0.241246  -0.000001
    11  H    0.273474   0.000000
    12  C    0.224796   0.000006
    13  H    0.000148   0.999803
    14  C    0.242100   0.000001
    15  H    0.279327  -0.000000
    16  O   -0.591199  -0.000000
    17  H    0.448868   0.000000
    18  O   -0.380372   0.000003
    19  C   -0.507757   0.000113
    20  H    0.240473  -0.000031
    21  H    0.251965   0.000002
    22  H    0.252510   0.000001
    23  C   -0.223126  -0.000000
    24  H    0.281189   0.000000
    25  C   -0.364600   0.000000
    26  H    0.260042   0.000000
    27  C    0.395513  -0.000000
    28  O   -0.360617  -0.000000
    29  C   -0.020763  -0.000000
    30  C   -0.242315   0.000000
    31  C   -0.233634  -0.000000
    32  C   -0.283017  -0.000000
    33  H    0.263288  -0.000000
    34  C    0.170709  -0.000000
    35  H    0.266831  -0.000000
    36  C    0.243734   0.000000
    37  H    0.269093   0.000000
    38  O   -0.595294   0.000000
    39  H    0.441714  -0.000000
    40  O   -0.383430   0.000000
    41  C   -0.502293  -0.000000
    42  H    0.228143   0.000000
    43  H    0.243253   0.000000
    44  H    0.245514  -0.000000
    45  C   -0.792991   0.000005
    46  H    0.310146  -0.000000
    47  H    0.309154   0.000000
    48  O   -0.274443   0.000022
    49  O   -0.264208   0.000007
    50  N    0.161257   0.000017
 Sum of Mulliken charges =   0.00000   1.00000

 Dipole moment (field-independent basis, Debye):
    X=              2.2512    Y=              5.0973    Z=              1.4323  Tot=              5.7534
 Quadrupole moment (field-independent basis, Debye-Ang):
   XX=            -73.0900   YY=           -172.6584   ZZ=           -177.4882
   XY=             25.1383   XZ=            -23.5506   YZ=             -7.6410

  Exact polarizability: 480.333  71.249 298.847 -61.627 -43.920 295.182
 Approx polarizability: 414.147  65.868 303.161 -56.008 -47.064 320.586

 ******    2 imaginary frequencies (negative Signs) ******

                      1                      2                      3
                      A                      A                      A
 Frequencies --    -13.6668                -5.6247                 9.6683
 Red. masses --      4.5846                 1.0303                 7.8153
 Frc consts  --      0.0005                 0.0000                 0.0004
 IR Inten    --      1.0295                 0.0179                 2.4727

                      4                      5                      6
                      A                      A                      A
 Frequencies --     17.9085                20.2871                39.0482
 Red. masses --      4.0898                 1.1355                 6.7987
 Frc consts  --      0.0008                 0.0003                 0.0061
 IR Inten    --      3.9632                 0.5276                 0.7251

                      7                      8                      9
                      A                      A                      A
 Frequencies --     48.7921                58.4539                60.6953
 Red. masses --      4.2040                 1.2657                 3.1757
 Frc consts  --      0.0059                 0.0025                 0.0069
 IR Inten    --      0.5326                 0.2174                 0.4712

                     10                     11                     12
                      A                      A                      A
 Frequencies --     67.9485                77.0592                80.5822
 Red. masses --      7.7685                 3.5635                10.5434
 Frc consts  --      0.0211                 0.0125                 0.0403
 IR Inten    --      1.8956                 3.6986                 1.0144

                     13                     14                     15
                      A                      A                      A
 Frequencies --     85.7449               109.8311               115.0806
 Red. masses --      6.6122                 6.5056                 3.3078
 Frc consts  --      0.0286                 0.0462                 0.0258
 IR Inten    --      3.6586                 1.5499                 3.9949

                     16                     17                     18
                      A                      A                      A
 Frequencies --    121.4736               131.8178               140.7844
 Red. masses --      2.7880                 4.2244                 1.3154
 Frc consts  --      0.0242                 0.0432                 0.0154
 IR Inten    --      5.4713                 0.6504                 2.5227

                     19                     20                     21
                      A                      A                      A
 Frequencies --    154.0174               157.9496               172.0838
 Red. masses --      1.7429                 3.7854                 2.5892
 Frc consts  --      0.0244                 0.0556                 0.0452
 IR Inten    --      4.4572                 0.1032                 4.8860

                     22                     23                     24
                      A                      A                      A
 Frequencies --    178.0849               184.1794               195.4284
 Red. masses --      4.0974                 3.8075                 6.0714
 Frc consts  --      0.0766                 0.0761                 0.1366
 IR Inten    --      7.8191                 5.7281                 6.8863

                     25                     26                     27
                      A                      A                      A
 Frequencies --    219.7929               234.2617               255.9269
 Red. masses --      3.4713                 5.0027                 4.9150
 Frc consts  --      0.0988                 0.1618                 0.1897
 IR Inten    --      8.5761                 1.5632                29.0309

                     28                     29                     30
                      A                      A                      A
 Frequencies --    276.0962               299.3049               305.5198
 Red. masses --      8.1881                 4.4179                 4.9181
 Frc consts  --      0.3678                 0.2332                 0.2705
 IR Inten    --      5.8026                 0.5084                 0.7955

                     31                     32                     33
                      A                      A                      A
 Frequencies --    320.0525               329.8033               343.7912
 Red. masses --      7.2631                 6.4540                 4.2689
 Frc consts  --      0.4383                 0.4136                 0.2973
 IR Inten    --      4.6706                 5.2378                12.4630

                     34                     35                     36
                      A                      A                      A
 Frequencies --    387.5426               391.1434               398.0854
 Red. masses --      2.3010                 1.1320                 1.7490
 Frc consts  --      0.2036                 0.1020                 0.1633
 IR Inten    --     50.8142               158.8043               110.5253

                     37                     38                     39
                      A                      A                      A
 Frequencies --    403.9029               407.2145               435.3675
 Red. masses --      3.8921                 3.2974                 7.2897
 Frc consts  --      0.3741                 0.3222                 0.8141
 IR Inten    --     20.4912                16.7895                13.4031

                     40                     41                     42
                      A                      A                      A
 Frequencies --    462.7363               469.9724               474.8118
 Red. masses --      4.1465                 5.2234                 4.1829
 Frc consts  --      0.5231                 0.6797                 0.5556
 IR Inten    --      2.4601                 3.5439                11.8475

                     43                     44                     45
                      A                      A                      A
 Frequencies --    487.9394               506.4383               540.3270
 Red. masses --      3.9770                 3.6625                 5.2760
 Frc consts  --      0.5579                 0.5535                 0.9076
 IR Inten    --     12.6487                 1.9312                18.0244

                     46                     47                     48
                      A                      A                      A
 Frequencies --    568.5043               579.2803               581.1849
 Red. masses --      3.3899                 5.8055                 5.7759
 Frc consts  --      0.6455                 1.1478                 1.1495
 IR Inten    --     22.6993                72.9979                24.5012

                     49                     50                     51
                      A                      A                      A
 Frequencies --    597.5169               614.1721               622.3790
 Red. masses --      4.9940                 3.7034                 4.4882
 Frc consts  --      1.0505                 0.8231                 1.0243
 IR Inten    --      1.7462                37.0692                12.5500

                     52                     53                     54
                      A                      A                      A
 Frequencies --    639.9398               662.9276               689.1553
 Red. masses --      5.9131                 4.8330                 5.1796
 Frc consts  --      1.4267                 1.2514                 1.4494
 IR Inten    --      6.9309                 5.0170                19.6309

                     55                     56                     57
                      A                      A                      A
 Frequencies --    728.8270               747.1108               757.1864
 Red. masses --      4.4032                 7.1369                 4.9558
 Frc consts  --      1.3781                 2.3471                 1.6741
 IR Inten    --     16.5800                 1.4789                 1.5848

                     58                     59                     60
                      A                      A                      A
 Frequencies --    773.2993               776.3803               797.4649
 Red. masses --      6.8623                 4.0925                 7.0993
 Frc consts  --      2.4178                 1.4534                 2.6601
 IR Inten    --      5.8511                 8.9231                17.6096

                     61                     62                     63
                      A                      A                      A
 Frequencies --    825.2307               830.4767               836.7019
 Red. masses --      4.1174                 1.8498                 1.5865
 Frc consts  --      1.6520                 0.7517                 0.6544
 IR Inten    --     24.5900                53.7693                57.6901

                     64                     65                     66
                      A                      A                      A
 Frequencies --    850.2580               862.2222               885.5389
 Red. masses --      8.0007                 2.4031                 2.9270
 Frc consts  --      3.4078                 1.0526                 1.3523
 IR Inten    --     66.8508                 8.2737                11.8798

                     67                     68                     69
                      A                      A                      A
 Frequencies --    901.7220               930.4963               948.4049
 Red. masses --      1.8574                 1.5467                 2.8383
 Frc consts  --      0.8898                 0.7890                 1.5042
 IR Inten    --      7.3190                10.5020                 1.4050

                     70                     71                     72
                      A                      A                      A
 Frequencies --    961.2870               964.8204               971.3180
 Red. masses --      1.3773                 1.4479                 2.8615
 Frc consts  --      0.7499                 0.7941                 1.5906
 IR Inten    --      2.5950                 2.1200                 5.3201

                     73                     74                     75
                      A                      A                      A
 Frequencies --    984.2791              1001.2104              1034.1049
 Red. masses --      5.0068                 2.8053                 1.3778
 Frc consts  --      2.8579                 1.6568                 0.8681
 IR Inten    --     34.6777                42.8454               216.8679

                     76                     77                     78
                      A                      A                      A
 Frequencies --   1036.2912              1036.9718              1077.6243
 Red. masses --      2.3242                 1.2703                 3.9532
 Frc consts  --      1.4706                 0.8048                 2.7048
 IR Inten    --     13.0196                86.4164               122.3254

                     79                     80                     81
                      A                      A                      A
 Frequencies --   1115.9365              1142.5060              1149.5823
 Red. masses --      3.5500                 1.5621                 1.7062
 Frc consts  --      2.6047                 1.2014                 1.3285
 IR Inten    --    129.9123                49.6800               167.4564

                     82                     83                     84
                      A                      A                      A
 Frequencies --   1186.3884              1189.5465              1191.4116
 Red. masses --      1.3191                 1.2642                 2.0003
 Frc consts  --      1.0939                 1.0540                 1.6729
 IR Inten    --      2.9586                15.8799               131.1552

                     85                     86                     87
                      A                      A                      A
 Frequencies --   1199.4344              1211.4380              1212.5564
 Red. masses --      1.4609                 1.7872                 1.4170
 Frc consts  --      1.2383                 1.5454                 1.2275
 IR Inten    --     56.5818                35.4308                39.3624

                     88                     89                     90
                      A                      A                      A
 Frequencies --   1226.4577              1231.2186              1240.8408
 Red. masses --      1.5525                 1.8904                 1.9775
 Frc consts  --      1.3759                 1.6884                 1.7939
 IR Inten    --     33.9690               706.3888               240.9620

                     91                     92                     93
                      A                      A                      A
 Frequencies --   1260.0416              1279.3492              1298.7067
 Red. masses --      1.7757                 1.4111                 1.8650
 Frc consts  --      1.6611                 1.3608                 1.8533
 IR Inten    --    127.8057                63.0408               273.2654

                     94                     95                     96
                      A                      A                      A
 Frequencies --   1303.4359              1311.4755              1317.2318
 Red. masses --      2.9275                 2.1653                 1.7092
 Frc consts  --      2.9304                 2.1942                 1.7473
 IR Inten    --    386.1590                95.2152                66.1872

                     97                     98                     99
                      A                      A                      A
 Frequencies --   1331.9000              1338.9051              1350.3481
 Red. masses --      1.7883                 2.5516                 3.6550
 Frc consts  --      1.8691                 2.6951                 3.9268
 IR Inten    --    103.1493               174.1833               142.1819

                    100                    101                    102
                      A                      A                      A
 Frequencies --   1354.8744              1376.7466              1377.9642
 Red. masses --      3.2313                 1.6638                 1.9872
 Frc consts  --      3.4949                 1.8580                 2.2231
 IR Inten    --     30.5041                95.7416               339.6828

                    103                    104                    105
                      A                      A                      A
 Frequencies --   1390.1724              1391.4711              1480.0580
 Red. masses --      1.7204                 2.2614                 1.9030
 Frc consts  --      1.9589                 2.5797                 2.4561
 IR Inten    --     22.2905               118.1673                26.7027

                    106                    107                    108
                      A                      A                      A
 Frequencies --   1483.2036              1497.6550              1502.5428
 Red. masses --      1.6731                 1.1434                 3.8392
 Frc consts  --      2.1685                 1.5110                 5.1067
 IR Inten    --     27.2178                34.7834               131.6067

                    109                    110                    111
                      A                      A                      A
 Frequencies --   1507.7227              1510.0585              1510.7239
 Red. masses --      1.0471                 1.0518                 1.7581
 Frc consts  --      1.4024                 1.4131                 2.3641
 IR Inten    --     17.1168                25.8607                28.3361

                    112                    113                    114
                      A                      A                      A
 Frequencies --   1518.6940              1521.1289              1522.6112
 Red. masses --      1.1031                 2.7816                 1.0485
 Frc consts  --      1.4990                 3.7921                 1.4322
 IR Inten    --     19.7647                33.4026                11.2629

                    115                    116                    117
                      A                      A                      A
 Frequencies --   1570.7326              1571.4219              1663.0802
 Red. masses --      3.7001                 3.4415                 6.6199
 Frc consts  --      5.3786                 5.0071                10.7878
 IR Inten    --    350.7499               348.1511                13.0317

                    118                    119                    120
                      A                      A                      A
 Frequencies --   1663.7429              1679.1181              1682.5147
 Red. masses --      6.1374                 6.1786                 8.1741
 Frc consts  --     10.0094                10.2636                13.6336
 IR Inten    --     11.7940               310.5468               250.7063

                    121                    122                    123
                      A                      A                      A
 Frequencies --   1704.9932              1714.5240              1726.1124
 Red. masses --     13.1952                 5.3544                 5.6764
 Frc consts  --     22.6001                 9.2735                 9.9647
 IR Inten    --    456.3430               185.2041               128.9908

                    124                    125                    126
                      A                      A                      A
 Frequencies --   1776.9186              1803.4322              3066.9105
 Red. masses --     11.5325                10.7965                 1.0348
 Frc consts  --     21.4540                20.6888                 5.7347
 IR Inten    --   1083.8582                57.7594                62.0222

                    127                    128                    129
                      A                      A                      A
 Frequencies --   3085.4937              3120.1699              3142.1260
 Red. masses --      1.0310                 1.0596                 1.1037
 Frc consts  --      5.7832                 6.0777                 6.4201
 IR Inten    --     47.0920                 0.2252                37.4760

                    130                    131                    132
                      A                      A                      A
 Frequencies --   3165.7661              3177.6709              3183.7635
 Red. masses --      1.1076                 1.1061                 1.1046
 Frc consts  --      6.5401                 6.5808                 6.5967
 IR Inten    --     22.8841                 5.2901                30.4319

                    133                    134                    135
                      A                      A                      A
 Frequencies --   3197.1159              3197.4549              3200.2738
 Red. masses --      1.1060                 1.0911                 1.0920
 Frc consts  --      6.6606                 6.5727                 6.5894
 IR Inten    --     20.9639                13.9168                 0.8486

                    136                    137                    138
                      A                      A                      A
 Frequencies --   3203.9213              3211.7340              3212.4723
 Red. masses --      1.0930                 1.0908                 1.0885
 Frc consts  --      6.6103                 6.6295                 6.6186
 IR Inten    --      2.7267                 5.9313                 3.4680

                    139                    140                    141
                      A                      A                      A
 Frequencies --   3214.0510              3224.5208              3228.4437
 Red. masses --      1.0888                 1.0939                 1.0908
 Frc consts  --      6.6266                 6.7013                 6.6988
 IR Inten    --      2.5250                 4.0173                 2.4503

                    142                    143                    144
                      A                      A                      A
 Frequencies --   3233.9898              3793.8153              3799.6924
 Red. masses --      1.0943                 1.0662                 1.0661
 Frc consts  --      6.7429                 9.0417                 9.0690
 IR Inten    --      0.5470               258.9009               228.3706

 - Thermochemistry -
 -------------------
 Temperature   363.150 Kelvin.  Pressure   1.00000 Atm.
 Atom     1 has atomic number  6 and mass  12.00000

 Molecular mass:   414.11889 amu.
 Principal axes and moments of inertia in atomic units:
                           1         2         3
     Eigenvalues --  5709.36865********************
           X            0.99999  -0.00057   0.00490
           Y            0.00080   0.99885  -0.04797
           Z           -0.00486   0.04797   0.99884
 This molecule is an asymmetric top.
 Rotational symmetry number  1.
 Warning -- assumption of classical behavior for rotation
           may cause significant error
 Rotational temperatures (Kelvin)      0.01517     0.00245     0.00239
 Rotational constants (GHZ):           0.31610     0.05115     0.04973
    2 imaginary frequencies ignored.
 Zero-point vibrational energy     989919.1 (Joules/Mol)
                                  236.59635 (Kcal/Mol)
 Warning -- explicit consideration of  54 degrees of freedom as
           vibrations may cause significant error
 Vibrational temperatures:     13.91    25.77    29.19    56.18    70.20
          (Kelvin)             84.10    87.33    97.76   110.87   115.94
                              123.37   158.02   165.58   174.77   189.66
                              202.56   221.60   227.25   247.59   256.22
                              264.99   281.18   316.23   337.05   368.22
                              397.24   430.63   439.57   460.48   474.51
                              494.64   557.59   562.77   572.76   581.13
                              585.89   626.40   665.77   676.19   683.15
                              702.04   728.65   777.41   817.95   833.46
                              836.20   859.69   883.66   895.46   920.73
                              953.80   991.54  1048.62  1074.93  1089.42
                             1112.61  1117.04  1147.37  1187.32  1194.87
                             1203.83  1223.33  1240.55  1274.09  1297.38
                             1338.78  1364.54  1383.08  1388.16  1397.51
                             1416.16  1440.52  1487.85  1490.99  1491.97
                             1550.46  1605.58  1643.81  1653.99  1706.95
                             1711.49  1714.18  1725.72  1742.99  1744.60
                             1764.60  1771.45  1785.29  1812.92  1840.70
                             1868.55  1875.35  1886.92  1895.20  1916.31
                             1926.39  1942.85  1949.36  1980.83  1982.58
                             2000.15  2002.02  2129.47  2134.00  2154.79
                             2161.82  2169.28  2172.64  2173.59  2185.06
                             2188.57  2190.70  2259.93  2260.93  2392.80
                             2393.75  2415.88  2420.76  2453.10  2466.82
                             2483.49  2556.59  2594.74  4412.60  4439.34
                             4489.23  4520.82  4554.83  4571.96  4580.73
                             4599.94  4600.42  4604.48  4609.73  4620.97
                             4622.03  4624.30  4639.37  4645.01  4652.99
                             5458.45  5466.91

 Zero-point correction=                           0.377040 (Hartree/Particle)
 Thermal correction to Energy=                    0.418517
 Thermal correction to Enthalpy=                  0.419667
 Thermal correction to Gibbs Free Energy=         0.290084
 Sum of electronic and zero-point Energies=          -1467.965882
 Sum of electronic and thermal Energies=             -1467.924405
 Sum of electronic and thermal Enthalpies=           -1467.923255
 Sum of electronic and thermal Free Energies=        -1468.052838

                     E (Thermal)             CV                S
                      KCal/Mol        Cal/Mol-Kelvin    Cal/Mol-Kelvin
 Total                  262.624            124.965            223.915
 Electronic               0.000              0.000              1.377
 Translational            1.082              2.981             44.933
 Rotational               1.082              2.981             37.822
 Vibrational            260.459            119.003            139.782
 Vibration     1          0.722              1.987              8.470
 Vibration     2          0.722              1.986              7.245
 Vibration     3          0.722              1.986              6.998
 Vibration     4          0.723              1.983              5.698
 Vibration     5          0.724              1.981              5.256
 Vibration     6          0.725              1.978              4.898
 Vibration     7          0.725              1.978              4.824
 Vibration     8          0.726              1.975              4.601
 Vibration     9          0.727              1.972              4.353
 Vibration    10          0.728              1.970              4.265
 Vibration    11          0.729              1.968              4.142
 Vibration    12          0.733              1.956              3.656
 Vibration    13          0.734              1.953              3.565
 Vibration    14          0.736              1.949              3.460
 Vibration    15          0.738              1.943              3.301
 Vibration    16          0.740              1.936              3.173
 Vibration    17          0.744              1.927              2.999
 Vibration    18          0.745              1.924              2.951
 Vibration    19          0.749              1.912              2.786
 Vibration    20          0.751              1.907              2.721
 Vibration    21          0.753              1.901              2.657
 Vibration    22          0.757              1.891              2.544
 Vibration    23          0.767              1.866              2.324
 Vibration    24          0.773              1.850              2.205
 Vibration    25          0.782              1.825              2.043
 Vibration    26          0.792              1.800              1.905
 Vibration    27          0.804              1.770              1.761
 Vibration    28          0.808              1.761              1.725
 Vibration    29          0.816              1.741              1.643
 Vibration    30          0.822              1.727              1.591
 Vibration    31          0.830              1.707              1.520
 Vibration    32          0.858              1.639              1.319
 Vibration    33          0.861              1.633              1.304
 Vibration    34          0.865              1.622              1.276
 Vibration    35          0.869              1.612              1.252
 Vibration    36          0.872              1.607              1.239
 Vibration    37          0.892              1.560              1.133
 Vibration    38          0.913              1.513              1.040
 Vibration    39          0.919              1.500              1.016
 Vibration    40          0.923              1.492              1.001
 Vibration    41          0.934              1.469              0.960
 Vibration    42          0.949              1.436              0.906
 Vibration    43          0.978              1.375              0.815
 Vibration    44          1.004              1.324              0.747
 Vibration    45          1.014              1.304              0.722
 Vibration    46          1.015              1.301              0.718
 Vibration    47          1.031              1.271              0.682
 Vibration    48          1.047              1.241              0.648
 Vibration    49          1.055              1.226              0.631
 Vibration    50          1.072              1.194              0.598
 Vibration    51          1.095              1.152              0.556
 Vibration    52          1.123              1.105              0.512
 Vibration    53          1.165              1.035              0.452
 Vibration    54          1.185              1.004              0.427

 Normal termination of Gaussian 16 at Wed Dec  4 16:24:10 2024.
