 Gaussian 16, Revision A.03,
 Gaussian 16:  ES64L-G16RevA.03 25-Dec-2016

 ----------------------------------------------------------------------
 # irc=(calcfc,maxpoints=30) b3lyp/6-311g(d) scrf=(smd,solvent=generic,
 read) temperature=298.15
 ----------------------------------------------------------------------

 ---
 IRC
 ---
 Symbolic Z-matrix:
 Charge =  0 Multiplicity = 2

 SCF Done:  E(UB3LYP) =  -1468.94750826     A.U. after   28 cycles
 SCF Done:  E(UB3LYP) =  -1468.94786631     A.U. after   18 cycles
 SCF Done:  E(UB3LYP) =  -1468.94862434     A.U. after   18 cycles
 SCF Done:  E(UB3LYP) =  -1468.94866940     A.U. after   16 cycles
 SCF Done:  E(UB3LYP) =  -1468.94971060     A.U. after   19 cycles
 SCF Done:  E(UB3LYP) =  -1468.94975769     A.U. after   16 cycles
 SCF Done:  E(UB3LYP) =  -1468.95129985     A.U. after   20 cycles
 SCF Done:  E(UB3LYP) =  -1468.95338968     A.U. after   19 cycles
 SCF Done:  E(UB3LYP) =  -1468.95588785     A.U. after   19 cycles
 SCF Done:  E(UB3LYP) =  -1468.95859024     A.U. after   19 cycles
 SCF Done:  E(UB3LYP) =  -1468.96910339     A.U. after   13 cycles
 SCF Done:  E(UB3LYP) =  -1468.96943012     A.U. after   12 cycles
 SCF Done:  E(UB3LYP) =  -1468.96974049     A.U. after   13 cycles
 SCF Done:  E(UB3LYP) =  -1468.97003567     A.U. after   12 cycles
 SCF Done:  E(UB3LYP) =  -1468.97031732     A.U. after   12 cycles
 SCF Done:  E(UB3LYP) =  -1468.97058635     A.U. after   12 cycles
 SCF Done:  E(UB3LYP) =  -1468.97084462     A.U. after   12 cycles
 SCF Done:  E(UB3LYP) =  -1468.97109282     A.U. after   12 cycles
 SCF Done:  E(UB3LYP) =  -1468.97133302     A.U. after   12 cycles
 SCF Done:  E(UB3LYP) =  -1468.97156550     A.U. after   12 cycles

                          Input orientation:
 ---------------------------------------------------------------------
 Center     Atomic      Atomic             Coordinates (Angstroms)
 Number     Number       Type             X           Y           Z
 ---------------------------------------------------------------------
      1          6           0       -2.512435    0.257557   -0.198835
      2          1           0       -2.005215    0.537564   -1.118670
      3          6           0       -1.922590    0.536421    0.982985
      4          1           0       -2.409555    0.288520    1.921565
      5          6           0       -0.616659    1.183724    1.174768
      6          8           0       -0.200957    1.427353    2.314580
      7          6           0       -3.797038   -0.395915   -0.407841
      8          6           0       -4.250757   -0.592563   -1.721900
      9          6           0       -4.610817   -0.859226    0.645659
     10          6           0       -5.467996   -1.211138   -1.976096
     11          1           0       -3.645519   -0.249394   -2.554829
     12          6           0       -5.826897   -1.475644    0.408304
     13          1           0       -4.312187   -0.734885    1.680324
     14          6           0       -6.269988   -1.651025   -0.922475
     15          1           0       -5.809575   -1.343844   -2.999280
     16          8           0       -7.479649   -2.235200   -1.109534
     17          1           0       -7.673774   -2.290601   -2.055983
     18          8           0       -6.609526   -1.843074    1.469961
     19          6           0       -6.771542   -3.256451    1.668521
     20          1           0       -5.799630   -3.739096    1.814474
     21          1           0       -7.368094   -3.366712    2.573599
     22          1           0       -7.293444   -3.721877    0.830521
     23          6           0        2.803064    0.214290   -0.099832
     24          1           0        1.868309   -0.307088   -0.292745
     25          6           0        2.755182    1.538408    0.167461
     26          1           0        3.645499    2.127796    0.363498
     27          6           0        1.502006    2.264837    0.237806
     28          8           0        1.436030    3.472935    0.450206
     29          6           0        3.980556   -0.625460   -0.145689
     30          6           0        3.849531   -1.978770   -0.492998
     31          6           0        5.263539   -0.137203    0.164389
     32          6           0        4.956954   -2.815121   -0.522071
     33          1           0        2.870520   -2.379423   -0.734625
     34          6           0        6.373202   -0.958106    0.145275
     35          1           0        5.417022    0.897171    0.448120
     36          6           0        6.221843   -2.320790   -0.198841
     37          1           0        4.844963   -3.864771   -0.780651
     38          8           0        7.332881   -3.095625   -0.180312
     39          1           0        7.104484   -4.003834   -0.424525
     40          8           0        7.584221   -0.448482    0.526150
     41          6           0        8.562452   -0.326554   -0.518199
     42          1           0        8.187896    0.312457   -1.324549
     43          1           0        9.433670    0.142276   -0.061906
     44          1           0        8.843229   -1.301938   -0.919575
     45          6           0        0.235922    1.489403    0.029957
     46          1           0        0.053905    1.040716   -0.940979
     47          1           0       -0.622291    3.048260   -0.847669
     48          8           0       -1.298214    3.605133   -1.276656
     49          8           0       -2.725802    4.995507   -0.518271
     50          7           0       -1.962814    4.176304   -0.171317
 ---------------------------------------------------------------------

 Alpha  occ. eigenvalues --  -19.19360 -19.17924 -19.16509 -19.16366 -19.13689
 Alpha  occ. eigenvalues --  -19.13615 -19.11182 -19.10395 -14.48956 -10.26597
 Alpha  occ. eigenvalues --  -10.25945 -10.25185 -10.24994 -10.23477 -10.23423
 Alpha  occ. eigenvalues --  -10.21408 -10.20809 -10.20774 -10.20202 -10.19870
 Alpha  occ. eigenvalues --  -10.19106 -10.19081 -10.18710 -10.18513 -10.18381
 Alpha  occ. eigenvalues --  -10.18246 -10.18218 -10.18151 -10.17874 -10.17712
 Alpha  occ. eigenvalues --   -1.23089  -1.08637  -1.08456  -1.05863  -1.05269
 Alpha  occ. eigenvalues --   -1.05127  -1.04794  -1.03569  -0.87352  -0.87089
 Alpha  occ. eigenvalues --   -0.82271  -0.81228  -0.77877  -0.76602  -0.76414
 Alpha  occ. eigenvalues --   -0.75151  -0.73173  -0.69189  -0.69100  -0.68410
 Alpha  occ. eigenvalues --   -0.67148  -0.66276  -0.63370  -0.62297  -0.59135
 Alpha  occ. eigenvalues --   -0.58996  -0.57444  -0.56904  -0.56159  -0.55807
 Alpha  occ. eigenvalues --   -0.52599  -0.51840  -0.51718  -0.51237  -0.50773
 Alpha  occ. eigenvalues --   -0.50573  -0.50513  -0.48328  -0.47879  -0.47625
 Alpha  occ. eigenvalues --   -0.46867  -0.46504  -0.46390  -0.44626  -0.44433
 Alpha  occ. eigenvalues --   -0.44276  -0.43942  -0.43364  -0.42897  -0.42300
 Alpha  occ. eigenvalues --   -0.41904  -0.41848  -0.41459  -0.41242  -0.40791
 Alpha  occ. eigenvalues --   -0.39555  -0.38581  -0.38204  -0.38097  -0.37838
 Alpha  occ. eigenvalues --   -0.37442  -0.37214  -0.36612  -0.36402  -0.34729
 Alpha  occ. eigenvalues --   -0.34522  -0.34371  -0.29816  -0.29658  -0.28634
 Alpha  occ. eigenvalues --   -0.28568  -0.27966  -0.27196  -0.26525  -0.25738
 Alpha  occ. eigenvalues --   -0.25610  -0.25287  -0.22508  -0.22103
 Alpha virt. eigenvalues --   -0.08159  -0.07977  -0.06920  -0.01643  -0.01497
 Alpha virt. eigenvalues --    0.00558   0.01724   0.03618   0.03679   0.04995
 Alpha virt. eigenvalues --    0.06246   0.06313   0.06979   0.07146   0.07396

  Beta  occ. eigenvalues --  -19.19351 -19.17808 -19.16508 -19.16358 -19.13689
  Beta  occ. eigenvalues --  -19.13615 -19.11007 -19.09871 -14.48958 -10.26668
  Beta  occ. eigenvalues --  -10.26100 -10.25184 -10.24985 -10.23477 -10.23424
  Beta  occ. eigenvalues --  -10.20809 -10.20774 -10.20242 -10.20179 -10.19869
  Beta  occ. eigenvalues --  -10.19102 -10.19077 -10.18709 -10.18508 -10.18381
  Beta  occ. eigenvalues --  -10.18246 -10.18216 -10.18148 -10.17829 -10.17692
  Beta  occ. eigenvalues --   -1.23055  -1.08635  -1.08442  -1.05627  -1.05268
  Beta  occ. eigenvalues --   -1.05125  -1.04342  -1.02736  -0.87337  -0.87069
  Beta  occ. eigenvalues --   -0.81848  -0.81113  -0.76765  -0.76571  -0.76397
  Beta  occ. eigenvalues --   -0.75068  -0.72200  -0.69187  -0.69096  -0.68277
  Beta  occ. eigenvalues --   -0.67091  -0.66162  -0.63307  -0.62195  -0.59091
  Beta  occ. eigenvalues --   -0.58961  -0.57245  -0.56693  -0.56140  -0.55750
  Beta  occ. eigenvalues --   -0.52406  -0.51702  -0.51614  -0.50970  -0.50694
  Beta  occ. eigenvalues --   -0.50480  -0.50221  -0.48180  -0.47814  -0.47566
  Beta  occ. eigenvalues --   -0.46502  -0.46447  -0.46364  -0.44462  -0.44401
  Beta  occ. eigenvalues --   -0.44244  -0.43841  -0.43157  -0.42839  -0.42057
  Beta  occ. eigenvalues --   -0.41710  -0.41593  -0.41249  -0.41163  -0.39688
  Beta  occ. eigenvalues --   -0.39301  -0.38453  -0.38175  -0.38047  -0.37809
  Beta  occ. eigenvalues --   -0.37399  -0.37094  -0.36517  -0.36252  -0.34605
  Beta  occ. eigenvalues --   -0.34495  -0.34329  -0.29682  -0.29229  -0.28628
  Beta  occ. eigenvalues --   -0.28549  -0.27754  -0.26447  -0.25607  -0.25594
  Beta  occ. eigenvalues --   -0.25407  -0.22430  -0.22108
  Beta virt. eigenvalues --   -0.13773  -0.08025  -0.07959  -0.05950  -0.01635
  Beta virt. eigenvalues --   -0.01440   0.00641   0.02212   0.03619   0.03683
  Beta virt. eigenvalues --    0.05137   0.06265   0.06347   0.07007   0.07182

 Mulliken charges and spin densities:
               1          2
     1  C   -0.217146  -0.004444
     2  H    0.234232   0.000621
     3  C   -0.301801   0.033818
     4  H    0.224587  -0.003207
     5  C    0.362402  -0.103094
     6  O   -0.346391   0.198097
     7  C    0.047667   0.002197
     8  C   -0.230477   0.004111
     9  C   -0.248221   0.002262
    10  C   -0.256019  -0.000951
    11  H    0.227076  -0.000235
    12  C    0.199263  -0.001198
    13  H    0.230097  -0.000051
    14  C    0.243488   0.006017
    15  H    0.238673   0.000011
    16  O   -0.562945   0.002402
    17  H    0.427783  -0.000090
    18  O   -0.366969   0.000049
    19  C   -0.456425  -0.000032
    20  H    0.209898  -0.000015
    21  H    0.227276  -0.000001
    22  H    0.226066   0.000003
    23  C   -0.211641   0.002885
    24  H    0.249985  -0.003095
    25  C   -0.305398   0.012307
    26  H    0.226675   0.000306
    27  C    0.367993  -0.063297
    28  O   -0.338760   0.054082
    29  C    0.044949  -0.000083
    30  C   -0.221793   0.000574
    31  C   -0.243101   0.000700
    32  C   -0.256071  -0.000069
    33  H    0.228701  -0.000027
    34  C    0.197550  -0.000015
    35  H    0.231636   0.000151
    36  C    0.245599   0.000834
    37  H    0.239533  -0.000004
    38  O   -0.561197   0.000333
    39  H    0.428474  -0.000011
    40  O   -0.365974   0.000116
    41  C   -0.457387  -0.000020
    42  H    0.210621   0.000003
    43  H    0.227693  -0.000001
    44  H    0.226394   0.000009
    45  C   -0.563157   0.864240
    46  H    0.296477  -0.035696
    47  H    0.405237  -0.001572
    48  O   -0.428879   0.030206
    49  O   -0.176477   0.002459
    50  N    0.190204  -0.001585
 Sum of Mulliken charges =  -0.00000   1.00000

 Dipole moment (field-independent basis, Debye):
    X=              1.3415    Y=            -13.3963    Z=             -8.4162  Tot=             15.8774
 Quadrupole moment (field-independent basis, Debye-Ang):
   XX=           -129.4174   YY=           -179.9053   ZZ=           -173.1616
   XY=              6.2285   XZ=              1.9023   YZ=              3.8491

  Exact polarizability:   0.000   0.000   0.000   0.000   0.000   0.000
 Approx polarizability: 633.367  11.029 508.890  68.629  72.886 378.752

 Normal termination of Gaussian 16 at Sat Nov  2 02:03:32 2024.
