 Gaussian 16, Revision A.03,
 Gaussian 16:  ES64L-G16RevA.03 25-Dec-2016

 ----------------------------------------------------------------------
 # pop=nbo b3lyp/6-311g(d) scrf=(smd,solvent=generic,read) temperature=
 298.15 Geom=Check Guess=Read
 ----------------------------------------------------------------------

 ----------
 Reagente 1
 ----------
 Structure from the checkpoint file:  "CURCUMIN-Reag-2-B3LYP-6-311G-D-298-NBO.chk"
 Charge =  0 Multiplicity = 2

                         Standard orientation:
 ---------------------------------------------------------------------
 Center     Atomic      Atomic             Coordinates (Angstroms)
 Number     Number       Type             X           Y           Z
 ---------------------------------------------------------------------
      1          6           0       -2.751635    0.256058   -0.312564
      2          1           0       -2.341337    0.675132   -1.228229
      3          6           0       -1.998279    0.298418    0.805510
      4          1           0       -2.364682   -0.091341    1.750987
      5          6           0       -0.643946    0.861900    0.897689
      6          8           0       -0.060407    0.887355    1.971457
      7          6           0       -4.093930   -0.293825   -0.457346
      8          6           0       -4.730160   -0.207514   -1.705364
      9          6           0       -4.790893   -0.921728    0.593892
     10          6           0       -6.010944   -0.711446   -1.895166
     11          1           0       -4.217903    0.267623   -2.535693
     12          6           0       -6.067014   -1.429181    0.419890
     13          1           0       -4.350054   -1.019209    1.579525
     14          6           0       -6.694027   -1.318931   -0.841558
     15          1           0       -6.493820   -0.624671   -2.864908
     16          8           0       -7.954729   -1.806719   -0.962212
     17          1           0       -8.273583   -1.668120   -1.865243
     18          8           0       -6.723111   -1.972090    1.492617
     19          6           0       -6.944534   -3.389985    1.434552
     20          1           0       -5.993450   -3.925579    1.348123
     21          1           0       -7.425351   -3.658790    2.374681
     22          1           0       -7.597478   -3.659899    0.602582
     23          6           0        2.698306   -0.003742   -0.184978
     24          1           0        1.792465   -0.578045   -0.363154
     25          6           0        2.594082    1.332352   -0.030504
     26          1           0        3.468268    1.947962    0.161071
     27          6           0        1.345820    2.098566   -0.086866
     28          8           0        1.368921    3.312774    0.082083
     29          6           0        3.912516   -0.808800   -0.139369
     30          6           0        3.815157   -2.194816   -0.338400
     31          6           0        5.193132   -0.265822    0.084827
     32          6           0        4.942378   -3.006369   -0.305057
     33          1           0        2.842945   -2.643303   -0.515701
     34          6           0        6.324963   -1.061673    0.123272
     35          1           0        5.330341    0.796862    0.248582
     36          6           0        6.202153   -2.456064   -0.068483
     37          1           0        4.848112   -4.078902   -0.452677
     38          8           0        7.332900   -3.203542    0.002458
     39          1           0        7.117122   -4.136044   -0.139478
     40          8           0        7.535273   -0.489053    0.412317
     41          6           0        8.484971   -0.462874   -0.664542
     42          1           0        8.078633    0.079824   -1.524393
     43          1           0        9.357780    0.066918   -0.283886
     44          1           0        8.775369   -1.470507   -0.967492
     45          6           0        0.018587    1.406103   -0.372506
     46          1           0        0.130300    0.590509   -1.092464
     47          1           0       -0.640617    2.145105   -0.832419
     48          8           0       -1.356703    4.806173   -0.822513
     49          8           0       -0.285703    5.932410    0.728617
     50          7           0       -0.819257    4.988892    0.231428
 ---------------------------------------------------------------------

 SCF Done:  E(UB3LYP) =  -1469.00757209     A.U. after    1 cycles

 The electronic state is 2-A.
 Alpha  occ. eigenvalues --  -19.21560 -19.21454 -19.16235 -19.16144 -19.13559
 Alpha  occ. eigenvalues --  -19.13457 -19.10063 -19.10021 -14.54228 -10.25879
 Alpha  occ. eigenvalues --  -10.25481 -10.24848 -10.24742 -10.23323 -10.23205
 Alpha  occ. eigenvalues --  -10.20746 -10.20661 -10.19579 -10.19429 -10.18933
 Alpha  occ. eigenvalues --  -10.18804 -10.18381 -10.18275 -10.18146 -10.18048
 Alpha  occ. eigenvalues --  -10.18045 -10.17918 -10.17468 -10.17308 -10.17074
 Alpha  occ. eigenvalues --   -1.27531  -1.12690  -1.08319  -1.08222  -1.05060
 Alpha  occ. eigenvalues --   -1.04960  -1.04064  -1.03201  -0.86944  -0.86822
 Alpha  occ. eigenvalues --   -0.81201  -0.80645  -0.76762  -0.76298  -0.76192
 Alpha  occ. eigenvalues --   -0.74603  -0.72553  -0.69035  -0.68938  -0.66561
 Alpha  occ. eigenvalues --   -0.66389  -0.65914  -0.62756  -0.61935  -0.58796
 Alpha  occ. eigenvalues --   -0.58653  -0.56716  -0.56338  -0.56152  -0.55920
 Alpha  occ. eigenvalues --   -0.55589  -0.55075  -0.52326  -0.51401  -0.51203
 Alpha  occ. eigenvalues --   -0.50440  -0.49415  -0.47820  -0.47479  -0.47340
 Alpha  occ. eigenvalues --   -0.46697  -0.46334  -0.46236  -0.44377  -0.44160
 Alpha  occ. eigenvalues --   -0.43973  -0.43654  -0.43416  -0.42658  -0.41902
 Alpha  occ. eigenvalues --   -0.41646  -0.41383  -0.41126  -0.40628  -0.38806
 Alpha  occ. eigenvalues --   -0.37913  -0.37824  -0.37721  -0.37493  -0.37173
 Alpha  occ. eigenvalues --   -0.37010  -0.36659  -0.36620  -0.36462  -0.36011
 Alpha  occ. eigenvalues --   -0.35609  -0.34292  -0.34188  -0.29382  -0.29082
 Alpha  occ. eigenvalues --   -0.28490  -0.28375  -0.27557  -0.25726  -0.25366
 Alpha  occ. eigenvalues --   -0.25256  -0.24723  -0.22148  -0.21985
 Alpha virt. eigenvalues --   -0.07350  -0.07222  -0.07140  -0.01437  -0.01333
 Alpha virt. eigenvalues --    0.01019   0.01197   0.03727   0.03795   0.05452
 Alpha virt. eigenvalues --    0.06317   0.06738   0.06920   0.07248   0.07470

  Beta  occ. eigenvalues --  -19.20659 -19.20569 -19.16235 -19.16144 -19.13559
  Beta  occ. eigenvalues --  -19.13457 -19.10063 -19.09978 -14.53085 -10.25879
  Beta  occ. eigenvalues --  -10.25483 -10.24848 -10.24742 -10.23323 -10.23205
  Beta  occ. eigenvalues --  -10.20746 -10.20661 -10.19579 -10.19430 -10.18933
  Beta  occ. eigenvalues --  -10.18804 -10.18381 -10.18275 -10.18146 -10.18048
  Beta  occ. eigenvalues --  -10.18045 -10.17918 -10.17467 -10.17308 -10.17071
  Beta  occ. eigenvalues --   -1.25695  -1.10629  -1.08319  -1.08222  -1.05060
  Beta  occ. eigenvalues --   -1.04960  -1.04042  -1.03151  -0.86944  -0.86822
  Beta  occ. eigenvalues --   -0.81199  -0.80643  -0.76759  -0.76297  -0.76192
  Beta  occ. eigenvalues --   -0.74600  -0.72551  -0.69035  -0.68938  -0.66539
  Beta  occ. eigenvalues --   -0.65916  -0.63148  -0.62750  -0.61930  -0.58795
  Beta  occ. eigenvalues --   -0.58644  -0.56339  -0.55907  -0.55099  -0.54508
  Beta  occ. eigenvalues --   -0.53903  -0.52520  -0.51904  -0.51381  -0.51201
  Beta  occ. eigenvalues --   -0.50437  -0.49403  -0.47813  -0.47472  -0.47328
  Beta  occ. eigenvalues --   -0.46690  -0.46334  -0.46235  -0.44371  -0.44160
  Beta  occ. eigenvalues --   -0.43967  -0.43639  -0.43413  -0.42657  -0.41898
  Beta  occ. eigenvalues --   -0.41628  -0.41378  -0.41116  -0.40601  -0.38798
  Beta  occ. eigenvalues --   -0.37911  -0.37812  -0.37709  -0.37486  -0.37086
  Beta  occ. eigenvalues --   -0.36639  -0.36551  -0.36146  -0.35806  -0.35630
  Beta  occ. eigenvalues --   -0.34293  -0.34187  -0.33093  -0.29379  -0.29077
  Beta  occ. eigenvalues --   -0.28490  -0.28372  -0.25809  -0.25366  -0.25261
  Beta  occ. eigenvalues --   -0.24791  -0.22147  -0.21981
  Beta virt. eigenvalues --   -0.12785  -0.07250  -0.07140  -0.05631  -0.01437
  Beta virt. eigenvalues --   -0.01333   0.01020   0.01202   0.03727   0.03795
  Beta virt. eigenvalues --    0.05461   0.06318   0.06739   0.06923   0.07251

 Mulliken charges and spin densities:
               1          2
     1  C   -0.228984   0.000036
     2  H    0.245891   0.000112
     3  C   -0.307785   0.000018
     4  H    0.219274  -0.000019
     5  C    0.348087   0.000025
     6  O   -0.344705   0.000207
     7  C    0.055177  -0.000008
     8  C   -0.230295  -0.000000
     9  C   -0.249661   0.000006
    10  C   -0.256978  -0.000000
    11  H    0.226873  -0.000001
    12  C    0.198212  -0.000000
    13  H    0.228691   0.000002
    14  C    0.241929   0.000004
    15  H    0.237630   0.000000
    16  O   -0.564595   0.000002
    17  H    0.427050  -0.000000
    18  O   -0.367628  -0.000000
    19  C   -0.456503   0.000000
    20  H    0.209751  -0.000000
    21  H    0.226712   0.000000
    22  H    0.225796  -0.000000
    23  C   -0.214761  -0.000466
    24  H    0.240650   0.000029
    25  C   -0.307741   0.001176
    26  H    0.216923  -0.000001
    27  C    0.367612  -0.001150
    28  O   -0.355793   0.011288
    29  C    0.044765   0.000212
    30  C   -0.230688  -0.000135
    31  C   -0.249501  -0.000123
    32  C   -0.257350   0.000076
    33  H    0.226249   0.000008
    34  C    0.197940   0.000062
    35  H    0.229239   0.000004
    36  C    0.242145  -0.000126
    37  H    0.237180  -0.000002
    38  O   -0.564827  -0.000026
    39  H    0.426683   0.000001
    40  O   -0.367559   0.000002
    41  C   -0.456207   0.000001
    42  H    0.209723   0.000001
    43  H    0.226416   0.000000
    44  H    0.225333  -0.000000
    45  C   -0.687176   0.000601
    46  H    0.266623  -0.000156
    47  H    0.264826  -0.001249
    48  O   -0.192500   0.263723
    49  O   -0.184663   0.269597
    50  N    0.362523   0.456274
 Sum of Mulliken charges =  -0.00000   1.00000

 Dipole moment (field-independent basis, Debye):
    X=             -2.5636    Y=            -10.0591    Z=             -8.2911  Tot=             13.2853
 Quadrupole moment (field-independent basis, Debye-Ang):
   XX=           -124.8432   YY=           -168.1526   ZZ=           -172.1948
   XY=            -10.2998   XZ=              7.9926   YZ=             -0.8616

 Summary of Natural Population Analysis:

                                       Natural Population
                Natural  -----------------------------------------------
    Atom  No    Charge         Core      Valence    Rydberg      Total
 -----------------------------------------------------------------------
      C    1   -0.05752      0.99950     2.05010    0.00791     3.05752
      H    2    0.10465      0.00000     0.39416    0.00119     0.39535
      C    3   -0.15081      0.99948     2.14222    0.00912     3.15081
      H    4    0.10644      0.00000     0.39158    0.00199     0.39356
      C    5    0.28162      0.99963     1.69892    0.01983     2.71838
      O    6   -0.29234      0.99988     3.28789    0.00457     4.29234
      C    7   -0.05713      0.99947     2.04965    0.00802     3.05713
      C    8   -0.08116      0.99953     2.07389    0.00774     3.08116
      C    9   -0.10118      0.99948     2.09397    0.00774     3.10118
      C   10   -0.14063      0.99952     2.13304    0.00807     3.14063
      H   11    0.10847      0.00000     0.39062    0.00091     0.39153
      C   12    0.13456      0.99933     1.85400    0.01210     2.86544
      H   13    0.11293      0.00000     0.38564    0.00143     0.38707
      C   14    0.15678      0.99936     1.83261    0.01125     2.84322
      H   15    0.11082      0.00000     0.38793    0.00126     0.38918
      O   16   -0.33308      0.99987     3.32881    0.00440     4.33308
      H   17    0.24010      0.00000     0.25929    0.00061     0.25990
      O   18   -0.28212      0.99986     3.27674    0.00552     4.28212
      C   19   -0.09422      0.99959     2.08647    0.00816     3.09422
      H   20    0.08156      0.00000     0.41739    0.00105     0.41844
      H   21    0.09121      0.00000     0.40828    0.00051     0.40879
      H   22    0.08646      0.00000     0.41246    0.00108     0.41354
      C   23   -0.05571      0.99950     2.04805    0.00816     3.05571
      H   24    0.10322      0.00000     0.39546    0.00132     0.39678
      C   25   -0.14647      0.99948     2.13780    0.00919     3.14647
      H   26    0.10578      0.00000     0.39220    0.00202     0.39422
      C   27    0.28391      0.99962     1.69491    0.02156     2.71609
      O   28   -0.29008      0.99988     3.28538    0.00482     4.29008
      C   29   -0.05664      0.99947     2.04916    0.00801     3.05664
      C   30   -0.08117      0.99953     2.07392    0.00772     3.08117
      C   31   -0.10064      0.99948     2.09344    0.00773     3.10064
      C   32   -0.14076      0.99952     2.13317    0.00806     3.14076
      H   33    0.10824      0.00000     0.39086    0.00090     0.39176
      C   34    0.13443      0.99933     1.85414    0.01209     2.86557
      H   35    0.11300      0.00000     0.38557    0.00143     0.38700
      C   36    0.15666      0.99936     1.83273    0.01125     2.84334
      H   37    0.11062      0.00000     0.38811    0.00126     0.38938
      O   38   -0.33319      0.99987     3.32892    0.00440     4.33319
      H   39    0.23996      0.00000     0.25942    0.00061     0.26004
      O   40   -0.28211      0.99986     3.27674    0.00552     4.28211
      C   41   -0.09420      0.99959     2.08645    0.00816     3.09420
      H   42    0.08158      0.00000     0.41737    0.00105     0.41842
      H   43    0.09112      0.00000     0.40837    0.00051     0.40888
      H   44    0.08633      0.00000     0.41259    0.00109     0.41367
      C   45   -0.28545      0.99954     2.27853    0.00738     3.28545
      H   46    0.11825      0.00000     0.38070    0.00104     0.38175
      H   47    0.12135      0.00000     0.37653    0.00212     0.37865
      O   48   -0.01162      0.99990     3.00491    0.00681     4.01162
      O   49    0.00274      0.99990     2.99054    0.00683     3.99726
      N   50    0.49543      0.99979     1.97999    0.02479     3.00457
 =======================================================================
   * Total *    0.50000     29.98810    77.71161    0.30029   108.00000

 1\1\GINC-N01\SP\UB3LYP\6-311G(d)\C21H20N1O8(2)\UNKNOWN\07-Nov-2024\0\\
 # pop=nbo b3lyp/6-311g(d) scrf=(smd,solvent=generic,read) temperature=
 298.15 Geom=Check Guess=Read\\Reagente 1\\0,2\C,0,-2.6841049157,0.1336
 107802,-0.3406136542\H,0,-2.2805937987,0.5180860226,-1.2742982993\C,0,
 -1.9437189777,0.2637019597,0.7793564276\H,0,-2.3047330289,-0.088292513
 7,1.7415721697\C,0,-0.611956724,0.8812957703,0.8515602694\O,0,-0.04021
 31145,0.9858305934,1.926885171\C,0,-4.0038257951,-0.472777886,-0.46598
 01743\C,0,-4.6306341316,-0.4770637547,-1.7217198185\C,0,-4.687443463,-

 Normal termination of Gaussian 16 at Thu Nov  7 10:18:25 2024.
