 Gaussian 16, Revision A.03,
 Gaussian 16:  ES64L-G16RevA.03 25-Dec-2016

 ----------------------------------------------------------------------
 # pop=nbo b3lyp/6-311g(d) scrf=(smd,solvent=generic,read) temperature=
 298.15 Geom=Check Guess=Read
 ----------------------------------------------------------------------

 ----------
 Reagente 1
 ----------
 Structure from the checkpoint file:  "CURCUMIN-Prod-2-B3LYP-6-311G-D-298-NBO.chk"
 Charge =  0 Multiplicity = 2

                         Standard orientation:
 ---------------------------------------------------------------------
 Center     Atomic      Atomic             Coordinates (Angstroms)
 Number     Number       Type             X           Y           Z
 ---------------------------------------------------------------------
      1          6           0       -2.706063    0.255079   -0.199328
      2          1           0       -2.413647    0.953447   -0.979154
      3          6           0       -1.832525   -0.022744    0.792593
      4          1           0       -2.091485   -0.724356    1.580170
      5          6           0       -0.467715    0.508197    0.941029
      6          8           0        0.251613    0.097224    1.860741
      7          6           0       -4.044642   -0.291176   -0.370933
      8          6           0       -4.807618    0.126191   -1.473548
      9          6           0       -4.619859   -1.229182    0.510014
     10          6           0       -6.091430   -0.359650   -1.682865
     11          1           0       -4.390562    0.845057   -2.171226
     12          6           0       -5.898547   -1.721223    0.315258
     13          1           0       -4.080067   -1.586109    1.379766
     14          6           0       -6.652908   -1.277794   -0.794985
     15          1           0       -6.672929   -0.018250   -2.534810
     16          8           0       -7.910772   -1.764431   -0.936055
     17          1           0       -8.323230   -1.382950   -1.724018
     18          8           0       -6.432848   -2.578340    1.239615
     19          6           0       -6.646625   -3.926444    0.791993
     20          1           0       -5.706524   -4.373609    0.452807
     21          1           0       -7.015406   -4.475895    1.657622
     22          1           0       -7.386988   -3.970264   -0.008702
     23          6           0        2.695606    0.060859   -0.022810
     24          1           0        1.786470   -0.526532   -0.090764
     25          6           0        2.586543    1.408258    0.050277
     26          1           0        3.464509    2.045912    0.085717
     27          6           0        1.342031    2.150652   -0.021029
     28          8           0        1.384803    3.391378   -0.160254
     29          6           0        3.915058   -0.724381   -0.036111
     30          6           0        3.812047   -2.122765   -0.133519
     31          6           0        5.206478   -0.161500    0.035858
     32          6           0        4.943503   -2.925505   -0.146594
     33          1           0        2.831461   -2.583220   -0.191924
     34          6           0        6.343265   -0.948854    0.025795
     35          1           0        5.348594    0.909989    0.115219
     36          6           0        6.214632   -2.354729   -0.061623
     37          1           0        4.846963   -4.005805   -0.210855
     38          8           0        7.351444   -3.090582   -0.044242
     39          1           0        7.134844   -4.032121   -0.103107
     40          8           0        7.569150   -0.356935    0.167124
     41          6           0        8.420854   -0.399991   -0.989296
     42          1           0        7.933525    0.078878   -1.844700
     43          1           0        9.316487    0.160809   -0.724072
     44          1           0        8.696302   -1.424360   -1.246130
     45          6           0        0.002617    1.536218    0.012995
     46          1           0       -0.727169    2.051671   -0.600355
     47          1           0        0.074762    4.430422   -0.390325
     48          8           0       -0.678967    5.055408   -0.568489
     49          8           0       -2.105655    6.090339    0.628115
     50          7           0       -1.192038    5.342529    0.685339
 ---------------------------------------------------------------------

 SCF Done:  E(UB3LYP) =  -1468.99018152     A.U. after    2 cycles

 The electronic state is 2-A.
 Alpha  occ. eigenvalues --  -19.17427 -19.16614 -19.16391 -19.16349 -19.13700
 Alpha  occ. eigenvalues --  -19.13643 -19.12254 -19.10396 -14.47519 -10.27311
 Alpha  occ. eigenvalues --  -10.26036 -10.25293 -10.25022 -10.23569 -10.23449
 Alpha  occ. eigenvalues --  -10.21659 -10.20811 -10.20792 -10.20258 -10.19865
 Alpha  occ. eigenvalues --  -10.19223 -10.19114 -10.18724 -10.18513 -10.18376
 Alpha  occ. eigenvalues --  -10.18372 -10.18243 -10.18184 -10.17958 -10.17885
 Alpha  occ. eigenvalues --   -1.21185  -1.08718  -1.08484  -1.05517  -1.05246
 Alpha  occ. eigenvalues --   -1.05158  -1.04053  -1.03734  -0.87267  -0.87103
 Alpha  occ. eigenvalues --   -0.81923  -0.81207  -0.77880  -0.76578  -0.76431
 Alpha  occ. eigenvalues --   -0.75151  -0.73263  -0.69187  -0.69120  -0.67560
 Alpha  occ. eigenvalues --   -0.66948  -0.66353  -0.63463  -0.62430  -0.59361
 Alpha  occ. eigenvalues --   -0.59079  -0.57769  -0.56293  -0.55908  -0.55550
 Alpha  occ. eigenvalues --   -0.53161  -0.51863  -0.51725  -0.51276  -0.49961
 Alpha  occ. eigenvalues --   -0.49537  -0.49195  -0.48263  -0.47793  -0.47625
 Alpha  occ. eigenvalues --   -0.46508  -0.46456  -0.46331  -0.45396  -0.44481
 Alpha  occ. eigenvalues --   -0.44302  -0.43867  -0.43359  -0.42941  -0.42601
 Alpha  occ. eigenvalues --   -0.42317  -0.41652  -0.41411  -0.41261  -0.40106
 Alpha  occ. eigenvalues --   -0.39028  -0.38346  -0.38159  -0.37966  -0.37903
 Alpha  occ. eigenvalues --   -0.37284  -0.37142  -0.36714  -0.36508  -0.34498
 Alpha  occ. eigenvalues --   -0.34403  -0.33397  -0.30113  -0.29657  -0.28978
 Alpha  occ. eigenvalues --   -0.28648  -0.28599  -0.26302  -0.26216  -0.26081
 Alpha  occ. eigenvalues --   -0.25537  -0.25331  -0.22570  -0.22055
 Alpha virt. eigenvalues --   -0.08838  -0.06715  -0.06489  -0.01665  -0.01498
 Alpha virt. eigenvalues --    0.00174   0.02322   0.03620   0.03685   0.05615
 Alpha virt. eigenvalues --    0.06261   0.06403   0.06900   0.07025   0.07646

  Beta  occ. eigenvalues --  -19.17427 -19.16607 -19.16383 -19.16351 -19.13700
  Beta  occ. eigenvalues --  -19.13643 -19.11930 -19.09905 -14.47518 -10.27406
  Beta  occ. eigenvalues --  -10.26185 -10.25285 -10.25013 -10.23571 -10.23451
  Beta  occ. eigenvalues --  -10.20811 -10.20792 -10.20548 -10.20250 -10.19864
  Beta  occ. eigenvalues --  -10.19220 -10.19109 -10.18719 -10.18508 -10.18377
  Beta  occ. eigenvalues --  -10.18368 -10.18244 -10.18180 -10.17918 -10.17839
  Beta  occ. eigenvalues --   -1.21185  -1.08705  -1.08470  -1.05245  -1.05157
  Beta  occ. eigenvalues --   -1.05062  -1.03852  -1.02926  -0.87248  -0.87083
  Beta  occ. eigenvalues --   -0.81515  -0.81110  -0.76733  -0.76540  -0.76406
  Beta  occ. eigenvalues --   -0.75073  -0.72322  -0.69184  -0.69116  -0.67519
  Beta  occ. eigenvalues --   -0.66920  -0.66242  -0.63382  -0.62326  -0.59296
  Beta  occ. eigenvalues --   -0.59045  -0.57553  -0.56265  -0.55871  -0.55530
  Beta  occ. eigenvalues --   -0.52937  -0.51764  -0.51678  -0.51196  -0.49729
  Beta  occ. eigenvalues --   -0.49514  -0.49183  -0.48169  -0.47680  -0.47512
  Beta  occ. eigenvalues --   -0.46489  -0.46416  -0.45913  -0.45158  -0.44454
  Beta  occ. eigenvalues --   -0.44284  -0.43749  -0.43205  -0.42866  -0.42247
  Beta  occ. eigenvalues --   -0.41883  -0.41571  -0.41290  -0.40163  -0.39599
  Beta  occ. eigenvalues --   -0.38953  -0.38284  -0.38112  -0.37872  -0.37860
  Beta  occ. eigenvalues --   -0.37184  -0.37026  -0.36621  -0.36267  -0.34474
  Beta  occ. eigenvalues --   -0.34360  -0.33388  -0.29789  -0.29211  -0.28642
  Beta  occ. eigenvalues --   -0.28576  -0.28140  -0.26265  -0.25747  -0.25446
  Beta  occ. eigenvalues --   -0.25399  -0.22405  -0.22114
  Beta virt. eigenvalues --   -0.14269  -0.08367  -0.06713  -0.05515  -0.01617
  Beta virt. eigenvalues --   -0.01440   0.00441   0.02888   0.03623   0.03692
  Beta virt. eigenvalues --    0.05699   0.06265   0.06568   0.06939   0.07070

 Mulliken charges and spin densities:
               1          2
     1  C   -0.226288  -0.004413
     2  H    0.248114   0.000835
     3  C   -0.294808   0.034296
     4  H    0.222982  -0.002961
     5  C    0.261097  -0.095880
     6  O   -0.350736   0.186013
     7  C    0.049108   0.002000
     8  C   -0.230013   0.004190
     9  C   -0.247791   0.002495
    10  C   -0.255645  -0.000958
    11  H    0.228470  -0.000229
    12  C    0.199086  -0.001213
    13  H    0.229191  -0.000065
    14  C    0.244299   0.006000
    15  H    0.239222   0.000011
    16  O   -0.562742   0.002423
    17  H    0.428045  -0.000091
    18  O   -0.367106  -0.000004
    19  C   -0.456612  -0.000014
    20  H    0.209828  -0.000017
    21  H    0.227265   0.000000
    22  H    0.226522  -0.000004
    23  C   -0.182333   0.000473
    24  H    0.245851  -0.000972
    25  C   -0.299590   0.031295
    26  H    0.228158  -0.001944
    27  C    0.402793  -0.070108
    28  O   -0.427170   0.113142
    29  C    0.030968   0.000766
    30  C   -0.221098   0.004131
    31  C   -0.244206   0.002871
    32  C   -0.255253  -0.000992
    33  H    0.231602  -0.000220
    34  C    0.199404  -0.001364
    35  H    0.232035  -0.000018
    36  C    0.247497   0.005557
    37  H    0.240723   0.000014
    38  O   -0.559444   0.002155
    39  H    0.429298  -0.000081
    40  O   -0.366612  -0.000039
    41  C   -0.456989  -0.000014
    42  H    0.211039  -0.000017
    43  H    0.228018  -0.000000
    44  H    0.226599  -0.000006
    45  C   -0.338005   0.820320
    46  H    0.253599  -0.036339
    47  H    0.414475  -0.001170
    48  O   -0.449689   0.000086
    49  O   -0.210243  -0.000006
    50  N    0.167087   0.000070
 Sum of Mulliken charges =  -0.00000   1.00000

 Dipole moment (field-independent basis, Debye):
    X=             -0.1145    Y=            -11.7807    Z=             -7.6976  Tot=             14.0731
 Quadrupole moment (field-independent basis, Debye-Ang):
   XX=           -115.3580   YY=           -188.2435   ZZ=           -176.1232
   XY=             -4.6524   XZ=             11.7119   YZ=              0.0968

 Summary of Natural Population Analysis:

                                       Natural Population
                Natural  -----------------------------------------------
    Atom  No    Charge         Core      Valence    Rydberg      Total
 -----------------------------------------------------------------------
      C    1   -0.05889      0.99950     2.05140    0.00798     3.05889
      H    2    0.10397      0.00000     0.39482    0.00121     0.39603
      C    3   -0.12055      0.99949     2.11186    0.00920     3.12055
      H    4    0.10598      0.00000     0.39211    0.00191     0.39402
      C    5    0.17673      0.99958     1.80505    0.01864     2.82327
      O    6   -0.19473      0.99989     3.19066    0.00418     4.19473
      C    7   -0.05480      0.99948     2.04731    0.00802     3.05480
      C    8   -0.07797      0.99953     2.07072    0.00773     3.07797
      C    9   -0.09954      0.99948     2.09234    0.00773     3.09954
      C   10   -0.14044      0.99952     2.13285    0.00807     3.14044
      H   11    0.10891      0.00000     0.39019    0.00090     0.39109
      C   12    0.13443      0.99933     1.85413    0.01211     2.86557
      H   13    0.11299      0.00000     0.38558    0.00143     0.38701
      C   14    0.16110      0.99936     1.82828    0.01126     2.83890
      H   15    0.11124      0.00000     0.38751    0.00125     0.38876
      O   16   -0.33085      0.99987     3.32658    0.00439     4.33085
      H   17    0.24042      0.00000     0.25897    0.00061     0.25958
      O   18   -0.28188      0.99986     3.27651    0.00551     4.28188
      C   19   -0.09428      0.99959     2.08654    0.00815     3.09428
      H   20    0.08162      0.00000     0.41733    0.00105     0.41838
      H   21    0.09136      0.00000     0.40813    0.00051     0.40864
      H   22    0.08666      0.00000     0.41226    0.00107     0.41334
      C   23   -0.03585      0.99951     2.02790    0.00844     3.03585
      H   24    0.10658      0.00000     0.39192    0.00150     0.39342
      C   25   -0.13047      0.99949     2.12216    0.00882     3.13047
      H   26    0.10881      0.00000     0.38941    0.00177     0.39119
      C   27    0.21968      0.99957     1.76316    0.01759     2.78032
      O   28   -0.25611      0.99986     3.25175    0.00450     4.25611
      C   29   -0.05864      0.99947     2.05123    0.00794     3.05864
      C   30   -0.07334      0.99953     2.06611    0.00770     3.07334
      C   31   -0.09598      0.99948     2.08880    0.00771     3.09598
      C   32   -0.14094      0.99952     2.13335    0.00807     3.14094
      H   33    0.10962      0.00000     0.38949    0.00088     0.39038
      C   34    0.13405      0.99933     1.85450    0.01211     2.86595
      H   35    0.11370      0.00000     0.38489    0.00142     0.38630
      C   36    0.16433      0.99936     1.82501    0.01129     2.83567
      H   37    0.11168      0.00000     0.38707    0.00125     0.38832
      O   38   -0.32945      0.99987     3.32518    0.00440     4.32945
      H   39    0.24087      0.00000     0.25852    0.00061     0.25913
      O   40   -0.28168      0.99986     3.27631    0.00551     4.28168
      C   41   -0.09433      0.99959     2.08659    0.00815     3.09433
      H   42    0.08194      0.00000     0.41702    0.00104     0.41806
      H   43    0.09159      0.00000     0.40791    0.00050     0.40841
      H   44    0.08658      0.00000     0.41236    0.00107     0.41342
      C   45    0.30436      0.99955     1.68840    0.00769     2.69564
      H   46    0.09105      0.00000     0.40686    0.00209     0.40895
      H   47    0.24208      0.00000     0.25411    0.00381     0.25792
      O   48   -0.27922      0.99988     3.27337    0.00597     4.27922
      O   49   -0.15371      0.99989     3.14406    0.00976     4.15371
      N   50    0.16130      0.99990     2.30710    0.03170     3.33870
 =======================================================================
   * Total *    0.50000     29.98813    77.70568    0.30619   108.00000

 1\1\GINC-N01\SP\UB3LYP\6-311G(d)\C21H20N1O8(2)\UNKNOWN\07-Nov-2024\0\\
 # pop=nbo b3lyp/6-311g(d) scrf=(smd,solvent=generic,read) temperature=
 298.15 Geom=Check Guess=Read\\Reagente 1\\0,2\C,0,-2.6489202243,0.1469
 092182,-0.2893021511\H,0,-2.3566389851,0.7286647733,-1.1596396213\C,0,
 -1.7855770743,0.0337008975,0.7431623244\H,0,-2.0444705976,-0.549508355
 8,1.622046031\C,0,-0.4320295273,0.6057678666,0.8285202895\O,0,0.280396
 269,0.3474381318,1.807251588\C,0,-3.9756506123,-0.4432167938,-0.395009
 9395\C,0,-4.7291345682,-0.2061866579,-1.5561162298\C,0,-4.548199323,-1

 Normal termination of Gaussian 16 at Thu Nov  7 10:20:06 2024.
