 Gaussian 16, Revision A.03,
 Gaussian 16:  ES64L-G16RevA.03 25-Dec-2016

 ----------------------------------------------------------------------
 # pop=nbo b3lyp/6-311g(d) scrf=(smd,solvent=generic,read) temperature=
 298.15 Geom=Check Guess=Read
 ----------------------------------------------------------------------

 ----------
 Reagente 1
 ----------
 Structure from the checkpoint file:  "CURCUMIN-TS-2-B3LYP-6-311G-D-298-NBO.chk"
 Charge =  0 Multiplicity = 2

                         Standard orientation:
 ---------------------------------------------------------------------
 Center     Atomic      Atomic             Coordinates (Angstroms)
 Number     Number       Type             X           Y           Z
 ---------------------------------------------------------------------
      1          6           0       -2.530286    0.300069   -0.184423
      2          1           0       -2.022866    0.586644   -1.101519
      3          6           0       -1.942794    0.584268    1.000898
      4          1           0       -2.413632    0.315207    1.941359
      5          6           0       -0.655294    1.257539    1.171450
      6          8           0       -0.178740    1.446126    2.283105
      7          6           0       -3.808229   -0.355176   -0.393905
      8          6           0       -4.261302   -0.549053   -1.710706
      9          6           0       -4.623562   -0.816656    0.660640
     10          6           0       -5.477473   -1.165284   -1.965841
     11          1           0       -3.654696   -0.204459   -2.541799
     12          6           0       -5.838458   -1.431679    0.422397
     13          1           0       -4.325276   -0.691589    1.695163
     14          6           0       -6.280063   -1.605542   -0.910999
     15          1           0       -5.819528   -1.297214   -2.988771
     16          8           0       -7.487215   -2.187664   -1.097994
     17          1           0       -7.684079   -2.243254   -2.044248
     18          8           0       -6.622867   -1.798663    1.480912
     19          6           0       -6.784928   -3.212565    1.681403
     20          1           0       -5.812838   -3.694041    1.828692
     21          1           0       -7.382028   -3.320863    2.586161
     22          1           0       -7.306300   -3.679047    0.843801
     23          6           0        2.756232    0.255863   -0.110398
     24          1           0        1.842189   -0.275060   -0.365220
     25          6           0        2.681813    1.571216    0.188443
     26          1           0        3.568341    2.140287    0.453842
     27          6           0        1.457614    2.376840    0.229505
     28          8           0        1.499634    3.568291    0.492965
     29          6           0        3.951553   -0.574518   -0.131977
     30          6           0        3.830988   -1.929147   -0.482280
     31          6           0        5.236675   -0.087445    0.180943
     32          6           0        4.939696   -2.764959   -0.509021
     33          1           0        2.855009   -2.334166   -0.729092
     34          6           0        6.350676   -0.907546    0.158635
     35          1           0        5.390589    0.947518    0.463535
     36          6           0        6.204038   -2.270806   -0.185529
     37          1           0        4.827633   -3.814372   -0.768793
     38          8           0        7.316509   -3.045421   -0.168013
     39          1           0        7.087770   -3.953469   -0.412428
     40          8           0        7.563524   -0.398359    0.537266
     41          6           0        8.545256   -0.282087   -0.505171
     42          1           0        8.174571    0.355629   -1.314260
     43          1           0        9.416097    0.186068   -0.047418
     44          1           0        8.824966   -1.259209   -0.902860
     45          6           0        0.120409    1.704515   -0.049987
     46          1           0        0.136880    0.971336   -0.857064
     47          1           0       -0.572318    2.624483   -0.563015
     48          8           0       -1.271835    3.550857   -1.165103
     49          8           0       -2.654716    5.012118   -0.541598
     50          7           0       -1.954316    4.124889   -0.153265
 ---------------------------------------------------------------------

 SCF Done:  E(UB3LYP) =  -1468.94750826     A.U. after    2 cycles

 The electronic state is 2-A.
 Alpha  occ. eigenvalues --  -19.19645 -19.17074 -19.16892 -19.16452 -19.13880
 Alpha  occ. eigenvalues --  -19.13644 -19.11503 -19.10363 -14.47587 -10.27115
 Alpha  occ. eigenvalues --  -10.26382 -10.25581 -10.25092 -10.23814 -10.23472
 Alpha  occ. eigenvalues --  -10.20983 -10.20940 -10.20772 -10.20577 -10.20045
 Alpha  occ. eigenvalues --  -10.19589 -10.19162 -10.18989 -10.18621 -10.18614
 Alpha  occ. eigenvalues --  -10.18565 -10.18462 -10.18318 -10.18207 -10.17815
 Alpha  occ. eigenvalues --   -1.21382  -1.09002  -1.08547  -1.05448  -1.05361
 Alpha  occ. eigenvalues --   -1.05172  -1.04196  -1.03831  -0.87543  -0.87156
 Alpha  occ. eigenvalues --   -0.82290  -0.81296  -0.78169  -0.76807  -0.76476
 Alpha  occ. eigenvalues --   -0.75230  -0.73590  -0.69366  -0.69124  -0.67316
 Alpha  occ. eigenvalues --   -0.66602  -0.65363  -0.63442  -0.62458  -0.59411
 Alpha  occ. eigenvalues --   -0.59033  -0.57240  -0.56389  -0.55897  -0.55536
 Alpha  occ. eigenvalues --   -0.52531  -0.51952  -0.51700  -0.50963  -0.50682
 Alpha  occ. eigenvalues --   -0.50263  -0.49487  -0.48387  -0.48033  -0.47684
 Alpha  occ. eigenvalues --   -0.46946  -0.46672  -0.46426  -0.44793  -0.44659
 Alpha  occ. eigenvalues --   -0.44374  -0.44081  -0.43634  -0.43172  -0.42674
 Alpha  occ. eigenvalues --   -0.42341  -0.41945  -0.41549  -0.41300  -0.39568
 Alpha  occ. eigenvalues --   -0.39353  -0.38506  -0.38245  -0.38138  -0.38053
 Alpha  occ. eigenvalues --   -0.37507  -0.37175  -0.36938  -0.36386  -0.34710
 Alpha  occ. eigenvalues --   -0.34435  -0.33979  -0.30124  -0.29757  -0.29518
 Alpha  occ. eigenvalues --   -0.28835  -0.28591  -0.27222  -0.26525  -0.25853
 Alpha  occ. eigenvalues --   -0.25720  -0.25503  -0.22746  -0.22341
 Alpha virt. eigenvalues --   -0.08130  -0.07587  -0.06719  -0.01850  -0.01586
 Alpha virt. eigenvalues --    0.00396   0.00931   0.03485   0.03639   0.05065
 Alpha virt. eigenvalues --    0.06176   0.06337   0.06603   0.07133   0.07252

  Beta  occ. eigenvalues --  -19.18281 -19.17009 -19.16868 -19.16446 -19.13878
  Beta  occ. eigenvalues --  -19.13643 -19.11279 -19.10343 -14.47599 -10.27166
  Beta  occ. eigenvalues --  -10.26403 -10.25556 -10.25085 -10.23814 -10.23472
  Beta  occ. eigenvalues --  -10.20940 -10.20772 -10.20573 -10.20317 -10.20042
  Beta  occ. eigenvalues --  -10.19572 -10.19158 -10.18977 -10.18622 -10.18611
  Beta  occ. eigenvalues --  -10.18562 -10.18406 -10.18318 -10.18206 -10.17776
  Beta  occ. eigenvalues --   -1.20754  -1.08957  -1.08535  -1.05440  -1.05170
  Beta  occ. eigenvalues --   -1.04977  -1.03853  -1.01781  -0.87499  -0.87142
  Beta  occ. eigenvalues --   -0.81982  -0.81208  -0.77363  -0.76789  -0.76470
  Beta  occ. eigenvalues --   -0.75142  -0.73040  -0.69357  -0.69122  -0.67269
  Beta  occ. eigenvalues --   -0.66462  -0.64445  -0.63392  -0.62339  -0.59374
  Beta  occ. eigenvalues --   -0.59010  -0.57136  -0.56315  -0.55804  -0.53833
  Beta  occ. eigenvalues --   -0.52308  -0.51905  -0.51634  -0.50822  -0.49854
  Beta  occ. eigenvalues --   -0.49420  -0.49264  -0.48197  -0.47976  -0.47611
  Beta  occ. eigenvalues --   -0.46654  -0.46571  -0.46417  -0.44645  -0.44617
  Beta  occ. eigenvalues --   -0.44342  -0.43975  -0.43333  -0.43080  -0.42533
  Beta  occ. eigenvalues --   -0.41930  -0.41765  -0.41461  -0.41203  -0.39513
  Beta  occ. eigenvalues --   -0.38477  -0.38257  -0.38131  -0.38043  -0.37563
  Beta  occ. eigenvalues --   -0.37214  -0.37027  -0.36674  -0.36272  -0.34667
  Beta  occ. eigenvalues --   -0.34416  -0.32957  -0.29831  -0.29458  -0.28825
  Beta  occ. eigenvalues --   -0.28590  -0.26888  -0.26044  -0.25763  -0.25516
  Beta  occ. eigenvalues --   -0.25452  -0.22537  -0.22283
  Beta virt. eigenvalues --   -0.18012  -0.07920  -0.07386  -0.06576  -0.01773
  Beta virt. eigenvalues --   -0.01565   0.00554   0.01085   0.03491   0.03642
  Beta virt. eigenvalues --    0.05151   0.06200   0.06386   0.06732   0.07269

 Mulliken charges and spin densities:
               1          2
     1  C   -0.216509   0.000479
     2  H    0.243593  -0.000310
     3  C   -0.295741   0.040970
     4  H    0.231639  -0.002237
     5  C    0.363012  -0.043357
     6  O   -0.323223   0.084896
     7  C    0.053481   0.010671
     8  C   -0.223297   0.008743
     9  C   -0.241289   0.002205
    10  C   -0.252711  -0.001614
    11  H    0.231649  -0.000526
    12  C    0.200763  -0.000235
    13  H    0.233479  -0.000175
    14  C    0.248445   0.016270
    15  H    0.242300  -0.000005
    16  O   -0.556875   0.007588
    17  H    0.430643  -0.000283
    18  O   -0.365627   0.000647
    19  C   -0.457107  -0.000025
    20  H    0.211411   0.000005
    21  H    0.228962  -0.000003
    22  H    0.227159   0.000001
    23  C   -0.210904   0.000110
    24  H    0.245243  -0.000626
    25  C   -0.310083   0.019691
    26  H    0.224694   0.001408
    27  C    0.363145  -0.021594
    28  O   -0.333290   0.007493
    29  C    0.046565   0.002402
    30  C   -0.228342   0.002275
    31  C   -0.246693   0.000733
    32  C   -0.255528  -0.000400
    33  H    0.227322  -0.000142
    34  C    0.198769  -0.000086
    35  H    0.231338   0.000014
    36  C    0.244598   0.004201
    37  H    0.238792  -0.000007
    38  O   -0.561944   0.001953
    39  H    0.428143  -0.000072
    40  O   -0.366739   0.000238
    41  C   -0.456826  -0.000018
    42  H    0.210779   0.000006
    43  H    0.227505  -0.000002
    44  H    0.226313   0.000006
    45  C   -0.635774   0.445915
    46  H    0.294148  -0.016232
    47  H    0.321368  -0.027429
    48  O   -0.273642   0.449743
    49  O   -0.236396   0.011341
    50  N    0.173283  -0.004626
 Sum of Mulliken charges =  -0.00000   1.00000

 Dipole moment (field-independent basis, Debye):
    X=             -0.4152    Y=            -15.2640    Z=             -8.0993  Tot=             17.2847
 Quadrupole moment (field-independent basis, Debye-Ang):
   XX=           -124.1192   YY=           -188.4930   ZZ=           -171.1824
   XY=             10.0482   XZ=              2.7403   YZ=              4.1782

 Summary of Natural Population Analysis:

                                       Natural Population
                Natural  -----------------------------------------------
    Atom  No    Charge         Core      Valence    Rydberg      Total
 -----------------------------------------------------------------------
      C    1   -0.04946      0.99951     2.04197    0.00798     3.04946
      H    2    0.10518      0.00000     0.39338    0.00144     0.39482
      C    3   -0.12261      0.99948     2.11412    0.00900     3.12261
      H    4    0.10925      0.00000     0.38894    0.00181     0.39075
      C    5    0.24450      0.99958     1.73598    0.01994     2.75550
      O    6   -0.23301      0.99988     3.22861    0.00451     4.23301
      C    7   -0.05061      0.99948     2.04312    0.00801     3.05061
      C    8   -0.07158      0.99953     2.06433    0.00772     3.07158
      C    9   -0.09682      0.99948     2.08961    0.00774     3.09682
      C   10   -0.14002      0.99952     2.13243    0.00808     3.14002
      H   11    0.10967      0.00000     0.38944    0.00089     0.39033
      C   12    0.13597      0.99933     1.85258    0.01212     2.86403
      H   13    0.11412      0.00000     0.38447    0.00141     0.38588
      C   14    0.17054      0.99937     1.81880    0.01130     2.82946
      H   15    0.11226      0.00000     0.38650    0.00124     0.38774
      O   16   -0.32524      0.99987     3.32098    0.00439     4.32524
      H   17    0.24129      0.00000     0.25810    0.00061     0.25871
      O   18   -0.28073      0.99986     3.27537    0.00551     4.28073
      C   19   -0.09428      0.99959     2.08656    0.00813     3.09428
      H   20    0.08206      0.00000     0.41691    0.00103     0.41794
      H   21    0.09189      0.00000     0.40761    0.00050     0.40811
      H   22    0.08673      0.00000     0.41222    0.00105     0.41327
      C   23   -0.05359      0.99950     2.04625    0.00784     3.05359
      H   24    0.10379      0.00000     0.39495    0.00126     0.39621
      C   25   -0.13449      0.99948     2.12606    0.00895     3.13449
      H   26    0.10920      0.00000     0.38888    0.00192     0.39080
      C   27    0.26085      0.99960     1.71791    0.02164     2.73915
      O   28   -0.27968      0.99988     3.27512    0.00467     4.27968
      C   29   -0.05566      0.99948     2.04817    0.00802     3.05566
      C   30   -0.07834      0.99953     2.07110    0.00772     3.07834
      C   31   -0.09913      0.99948     2.09193    0.00773     3.09913
      C   32   -0.14055      0.99952     2.13296    0.00807     3.14055
      H   33    0.10849      0.00000     0.39061    0.00090     0.39151
      C   34    0.13507      0.99933     1.85349    0.01211     2.86493
      H   35    0.11357      0.00000     0.38501    0.00142     0.38643
      C   36    0.16093      0.99936     1.82844    0.01127     2.83907
      H   37    0.11118      0.00000     0.38756    0.00125     0.38882
      O   38   -0.33074      0.99987     3.32648    0.00440     4.33074
      H   39    0.24046      0.00000     0.25893    0.00061     0.25954
      O   40   -0.28156      0.99986     3.27620    0.00551     4.28156
      C   41   -0.09430      0.99959     2.08656    0.00815     3.09430
      H   42    0.08188      0.00000     0.41708    0.00104     0.41812
      H   43    0.09144      0.00000     0.40806    0.00051     0.40856
      H   44    0.08657      0.00000     0.41236    0.00107     0.41343
      C   45   -0.01177      0.99950     2.00381    0.00846     3.01177
      H   46    0.11688      0.00000     0.38229    0.00084     0.38312
      H   47    0.15568      0.00000     0.34048    0.00383     0.34432
      O   48    0.04379      0.99993     2.95034    0.00594     3.95621
      O   49   -0.15484      0.99990     3.14610    0.00883     4.15484
      N   50    0.15575      0.99988     2.31298    0.03139     3.34425
 =======================================================================
   * Total *    0.50000     29.98814    77.70211    0.30975   108.00000

 1\1\GINC-N01\SP\UB3LYP\6-311G(d)\C21H20N1O8(2)\UNKNOWN\07-Nov-2024\0\\
 # pop=nbo b3lyp/6-311g(d) scrf=(smd,solvent=generic,read) temperature=
 298.15 Geom=Check Guess=Read\\Reagente 1\\0,2\C,0,-2.5196309289,0.3012
 235757,-0.1912373809\H,0,-2.0090650124,0.5494874329,-1.1177108264\C,0,
 -1.9355908067,0.6333677435,0.9832743569\H,0,-2.4096320458,0.4035322728
 ,1.9324901917\C,0,-0.6479941562,1.3120183983,1.130126667\O,0,-0.174750
 7529,1.5456976593,2.2346085\C,0,-3.7975320815,-0.3610213604,-0.3776966
 634\C,0,-4.2466561027,-0.6084287005,-1.6868586361\C,0,-4.6166067836,-0

 Normal termination of Gaussian 16 at Thu Nov  7 10:17:40 2024.
