 Gaussian 16, Revision A.03,
 Gaussian 16:  ES64L-G16RevA.03 25-Dec-2016

 ----------------------------------------------------------------------
 # pop=nbo M062X/6-311g(d) scrf=(smd,solvent=generic,read) temperature=
 298.15 Geom=Check Guess=Read
 ----------------------------------------------------------------------

 ----------
 Reagente 1
 ----------
 Structure from the checkpoint file:  "CURCUMIN-TS-1-M062X-6-311G-D-298-NBO.chk"
 Charge =  0 Multiplicity = 2

                         Standard orientation:
 ---------------------------------------------------------------------
 Center     Atomic      Atomic             Coordinates (Angstroms)
 Number     Number       Type             X           Y           Z
 ---------------------------------------------------------------------
      1          6           0        2.186038    1.286851    0.459561
      2          1           0        1.818548    2.248310    0.112013
      3          6           0        1.476775    0.596029    1.364107
      4          1           0        1.813791   -0.351888    1.774869
      5          6           0        0.186565    1.049856    1.921793
      6          8           0       -0.388730    0.371574    2.746252
      7          6           0        3.480118    0.903527   -0.095513
      8          6           0        4.339907    1.894873   -0.557606
      9          6           0        4.004882   -0.411161   -0.052827
     10          6           0        5.629663    1.610428   -0.993340
     11          1           0        3.992738    2.921903   -0.565172
     12          6           0        5.259495   -0.738598   -0.579976
     13          1           0        4.361264   -0.412416    1.745626
     14          6           0        6.098330    0.300185   -1.003121
     15          1           0        6.274687    2.410112   -1.343613
     16          8           0        7.322238   -0.056458   -1.437346
     17          1           0        7.810353    0.722422   -1.735795
     18          8           0        5.641242   -2.031416   -0.674208
     19          6           0        6.489280   -2.460032    0.402313
     20          1           0        5.963629   -2.362723    1.354743
     21          1           0        6.714665   -3.506617    0.210774
     22          1           0        7.412156   -1.877640    0.415182
     23          6           0       -2.911495    0.952255    0.695546
     24          1           0       -2.552761    0.947172    1.721932
     25          6           0       -2.198418    1.596993   -0.241870
     26          1           0       -2.504160    1.617167   -1.283594
     27          6           0       -0.944649    2.318214    0.025000
     28          8           0       -0.343931    2.865705   -0.877581
     29          6           0       -4.154653    0.213500    0.484617
     30          6           0       -4.743011   -0.438221    1.571098
     31          6           0       -4.791491    0.132506   -0.764366
     32          6           0       -5.922009   -1.157366    1.421984
     33          1           0       -4.267618   -0.389287    2.544957
     34          6           0       -5.962067   -0.581008   -0.925737
     35          1           0       -4.377830    0.617935   -1.641524
     36          6           0       -6.538947   -1.237720    0.178518
     37          1           0       -6.364418   -1.667517    2.272358
     38          8           0       -7.678578   -1.930844   -0.041195
     39          1           0       -7.975357   -2.343334    0.780290
     40          8           0       -6.537330   -0.677566   -2.159351
     41          6           0       -7.726574    0.098698   -2.300463
     42          1           0       -7.509975    1.159217   -2.141171
     43          1           0       -8.074516   -0.051144   -3.321063
     44          1           0       -8.497413   -0.229983   -1.600938
     45          6           0       -0.403427    2.376770    1.454318
     46          1           0       -1.196788    2.641436    2.152922
     47          1           0        0.357332    3.157170    1.477182
     48          8           0        3.309964   -2.413820    0.913378
     49          8           0        2.186367   -1.629347   -0.741777
     50          7           0        3.083694   -1.581770    0.065779
 ---------------------------------------------------------------------

 SCF Done:  E(UM062X) =  -1468.33578031     A.U. after    1 cycles

 The electronic state is 2-A.
 Alpha  occ. eigenvalues --  -19.66922 -19.66722 -19.66713 -19.65846 -19.65265
 Alpha  occ. eigenvalues --  -19.63409 -19.61656 -19.61159 -15.00840 -10.63890
 Alpha  occ. eigenvalues --  -10.63479 -10.63185 -10.62892 -10.62800 -10.61548
 Alpha  occ. eigenvalues --  -10.59965 -10.58189 -10.58041 -10.57318 -10.57250
 Alpha  occ. eigenvalues --  -10.56834 -10.56556 -10.56413 -10.55503 -10.55369
 Alpha  occ. eigenvalues --  -10.55071 -10.54827 -10.54752 -10.54662 -10.54212
 Alpha  occ. eigenvalues --   -1.38659  -1.21913  -1.20439  -1.19931  -1.19193
 Alpha  occ. eigenvalues --   -1.17640  -1.17350  -1.16953  -1.00601  -0.97298
 Alpha  occ. eigenvalues --   -0.92554  -0.91381  -0.91054  -0.87568  -0.85712
 Alpha  occ. eigenvalues --   -0.85251  -0.82742  -0.81163  -0.78765  -0.77873
 Alpha  occ. eigenvalues --   -0.74910  -0.74417  -0.71285  -0.70667  -0.69685
 Alpha  occ. eigenvalues --   -0.66790  -0.66728  -0.65256  -0.63623  -0.62866
 Alpha  occ. eigenvalues --   -0.61628  -0.60929  -0.60603  -0.59580  -0.58813
 Alpha  occ. eigenvalues --   -0.58659  -0.57931  -0.56542  -0.55813  -0.55545
 Alpha  occ. eigenvalues --   -0.54536  -0.54021  -0.53126  -0.52730  -0.52118
 Alpha  occ. eigenvalues --   -0.51290  -0.50748  -0.50485  -0.50260  -0.49795
 Alpha  occ. eigenvalues --   -0.49284  -0.48514  -0.47997  -0.47472  -0.46696
 Alpha  occ. eigenvalues --   -0.46562  -0.45530  -0.45237  -0.44494  -0.44194
 Alpha  occ. eigenvalues --   -0.43418  -0.43282  -0.42695  -0.42522  -0.40402
 Alpha  occ. eigenvalues --   -0.40170  -0.39647  -0.39109  -0.36905  -0.36317
 Alpha  occ. eigenvalues --   -0.35939  -0.35294  -0.34940  -0.33960  -0.32164
 Alpha  occ. eigenvalues --   -0.30722  -0.29097  -0.26834  -0.26787
 Alpha virt. eigenvalues --   -0.05273  -0.03753  -0.02652   0.01038   0.02297
 Alpha virt. eigenvalues --    0.03548   0.05375   0.06900   0.07478   0.08867
 Alpha virt. eigenvalues --    0.09898   0.10077   0.10485   0.11243   0.11789

  Beta  occ. eigenvalues --  -19.66948 -19.66710 -19.66706 -19.65846 -19.65234
  Beta  occ. eigenvalues --  -19.63409 -19.61637 -19.61159 -15.00808 -10.63894
  Beta  occ. eigenvalues --  -10.63479 -10.63226 -10.62954 -10.62694 -10.61548
  Beta  occ. eigenvalues --  -10.59965 -10.58099 -10.58026 -10.57335 -10.57250
  Beta  occ. eigenvalues --  -10.56870 -10.56491 -10.56413 -10.55503 -10.55344
  Beta  occ. eigenvalues --  -10.55071 -10.54827 -10.54752 -10.54661 -10.54212
  Beta  occ. eigenvalues --   -1.38625  -1.21917  -1.20439  -1.19910  -1.19122
  Beta  occ. eigenvalues --   -1.17596  -1.17350  -1.16947  -1.00440  -0.97298
  Beta  occ. eigenvalues --   -0.92463  -0.91335  -0.91035  -0.87482  -0.85710
  Beta  occ. eigenvalues --   -0.85202  -0.82707  -0.80998  -0.78623  -0.77873
  Beta  occ. eigenvalues --   -0.74886  -0.74353  -0.71224  -0.70657  -0.69566
  Beta  occ. eigenvalues --   -0.66727  -0.66699  -0.65160  -0.63599  -0.62838
  Beta  occ. eigenvalues --   -0.61563  -0.60858  -0.60447  -0.59527  -0.58788
  Beta  occ. eigenvalues --   -0.58605  -0.57857  -0.56498  -0.55498  -0.55330
  Beta  occ. eigenvalues --   -0.54534  -0.54021  -0.53094  -0.52708  -0.52104
  Beta  occ. eigenvalues --   -0.51244  -0.50747  -0.50461  -0.50186  -0.49737
  Beta  occ. eigenvalues --   -0.49267  -0.48502  -0.47445  -0.47276  -0.46526
  Beta  occ. eigenvalues --   -0.45821  -0.45465  -0.45059  -0.44466  -0.44170
  Beta  occ. eigenvalues --   -0.43410  -0.43220  -0.42586  -0.42445  -0.40392
  Beta  occ. eigenvalues --   -0.39821  -0.39544  -0.39063  -0.36371  -0.35739
  Beta  occ. eigenvalues --   -0.35274  -0.34935  -0.33937  -0.33726  -0.32142
  Beta  occ. eigenvalues --   -0.30722  -0.28297  -0.26793
  Beta virt. eigenvalues --   -0.08440  -0.04832  -0.03671  -0.02434   0.01064
  Beta virt. eigenvalues --    0.02300   0.03730   0.05409   0.06919   0.07478
  Beta virt. eigenvalues --    0.08849   0.09912   0.10136   0.10534   0.11297

 Mulliken charges and spin densities:
               1          2
     1  C   -0.216661  -0.027332
     2  H    0.283004   0.001445
     3  C   -0.335604   0.046484
     4  H    0.249827  -0.004074
     5  C    0.389685  -0.005986
     6  O   -0.351735   0.010576
     7  C    0.145224   0.121687
     8  C   -0.233890  -0.070295
     9  C   -0.158760  -0.103154
    10  C   -0.248985   0.125723
    11  H    0.276617   0.002354
    12  C    0.281381   0.158840
    13  H    0.010566   0.811582
    14  C    0.250655  -0.069290
    15  H    0.282020  -0.005114
    16  O   -0.588244  -0.006521
    17  H    0.448404   0.000087
    18  O   -0.370442   0.003720
    19  C   -0.511172   0.017604
    20  H    0.248504  -0.007969
    21  H    0.253821  -0.000487
    22  H    0.249417  -0.000744
    23  C   -0.224287   0.000028
    24  H    0.281429  -0.000045
    25  C   -0.363871   0.000013
    26  H    0.259974  -0.000005
    27  C    0.395368  -0.000028
    28  O   -0.360635   0.000078
    29  C   -0.020368   0.000005
    30  C   -0.242523   0.000003
    31  C   -0.233366  -0.000000
    32  C   -0.283043  -0.000003
    33  H    0.263187   0.000001
    34  C    0.170297  -0.000001
    35  H    0.266771   0.000001
    36  C    0.243666   0.000006
    37  H    0.269151   0.000000
    38  O   -0.595287   0.000002
    39  H    0.441694  -0.000000
    40  O   -0.383427  -0.000000
    41  C   -0.502274   0.000000
    42  H    0.228125  -0.000000
    43  H    0.243299   0.000000
    44  H    0.245421  -0.000000
    45  C   -0.793726   0.000287
    46  H    0.310071  -0.000005
    47  H    0.308982  -0.000053
    48  O   -0.257479  -0.003743
    49  O   -0.268458   0.005450
    50  N    0.247675  -0.001126
 Sum of Mulliken charges =  -0.00000   1.00000

 Dipole moment (field-independent basis, Debye):
    X=              2.4140    Y=              5.1455    Z=              1.8762  Tot=              5.9853
 Quadrupole moment (field-independent basis, Debye-Ang):
   XX=            -72.9626   YY=           -172.1480   ZZ=           -178.4646
   XY=             27.0486   XZ=            -22.0037   YZ=             -8.5137

 Summary of Natural Population Analysis:

                                       Natural Population
                Natural  -----------------------------------------------
    Atom  No    Charge         Core      Valence    Rydberg      Total
 -----------------------------------------------------------------------
      C    1   -0.07557      0.99952     2.06789    0.00816     3.07557
      H    2    0.11732      0.00000     0.38054    0.00214     0.38268
      C    3   -0.13075      0.99950     2.12207    0.00918     3.13075
      H    4    0.10823      0.00000     0.38950    0.00227     0.39177
      C    5    0.28993      0.99964     1.69045    0.01998     2.71007
      O    6   -0.28332      0.99989     3.27831    0.00513     4.28332
      C    7   -0.00202      0.99944     1.99370    0.00888     3.00202
      C    8   -0.09876      0.99954     2.09154    0.00768     3.09876
      C    9   -0.04695      0.99937     2.03485    0.01273     3.04695
      C   10   -0.07981      0.99954     2.07247    0.00780     3.07981
      H   11    0.11939      0.00000     0.37983    0.00079     0.38061
      C   12    0.21129      0.99929     1.77664    0.01279     2.78871
      H   13    0.42486      0.00000     0.07436    0.00078     0.07514
      C   14    0.14014      0.99937     1.84916    0.01134     2.85986
      H   15    0.11742      0.00000     0.38181    0.00077     0.38258
      O   16   -0.34047      0.99988     3.33577    0.00483     4.34047
      H   17    0.24488      0.00000     0.25446    0.00066     0.25512
      O   18   -0.27944      0.99986     3.27381    0.00577     4.27944
      C   19   -0.09144      0.99960     2.08352    0.00832     3.09144
      H   20    0.08794      0.00000     0.41120    0.00086     0.41206
      H   21    0.09631      0.00000     0.40326    0.00043     0.40369
      H   22    0.08821      0.00000     0.41100    0.00080     0.41179
      C   23   -0.05671      0.99953     2.04912    0.00806     3.05671
      H   24    0.11017      0.00000     0.38766    0.00217     0.38983
      C   25   -0.15937      0.99950     2.15083    0.00904     3.15937
      H   26    0.11112      0.00000     0.38725    0.00163     0.38888
      C   27    0.28980      0.99964     1.69051    0.02004     2.71020
      O   28   -0.29450      0.99989     3.28943    0.00519     4.29450
      C   29   -0.06156      0.99950     2.05429    0.00777     3.06156
      C   30   -0.08310      0.99955     2.07595    0.00760     3.08310
      C   31   -0.10519      0.99950     2.09807    0.00762     3.10519
      C   32   -0.14484      0.99954     2.13736    0.00794     3.14484
      H   33    0.11297      0.00000     0.38616    0.00086     0.38703
      C   34    0.13458      0.99935     1.85398    0.01208     2.86542
      H   35    0.11679      0.00000     0.38191    0.00129     0.38321
      C   36    0.15922      0.99937     1.83030    0.01111     2.84078
      H   37    0.11471      0.00000     0.38413    0.00116     0.38529
      O   38   -0.34108      0.99988     3.33642    0.00479     4.34108
      H   39    0.24256      0.00000     0.25688    0.00057     0.25744
      O   40   -0.28688      0.99987     3.28097    0.00604     4.28688
      C   41   -0.09688      0.99961     2.08884    0.00844     3.09688
      H   42    0.08288      0.00000     0.41623    0.00089     0.41712
      H   43    0.09285      0.00000     0.40668    0.00047     0.40715
      H   44    0.08737      0.00000     0.41172    0.00091     0.41263
      C   45   -0.29033      0.99957     2.28319    0.00757     3.29033
      H   46    0.12394      0.00000     0.37515    0.00092     0.37606
      H   47    0.12332      0.00000     0.37575    0.00093     0.37668
      O   48   -0.19568      0.99989     3.18821    0.00758     4.19568
      O   49   -0.18684      0.99989     3.17955    0.00740     4.18684
      N   50    0.28331      0.99969     2.18675    0.03025     3.21669
 =======================================================================
   * Total *    0.50000     29.98822    77.69939    0.31240   108.00000

 1\1\GINC-N02\SP\UM062X\6-311G(d)\C21H20N1O8(2)\UNKNOWN\02-Dec-2024\0\\
 # pop=nbo M062X/6-311g(d) scrf=(smd,solvent=generic,read) temperature=
 298.15 Geom=Check Guess=Read\\Reagente 1\\0,2\C,0,2.2253347478,1.30140
 82344,0.0534496474\H,0,1.8743308119,2.1093384308,-0.5823857735\C,0,1.5
 002884446,0.9385008677,1.1216714371\H,0,1.8206302303,0.1636601069,1.81
 29422199\C,0,0.2135254633,1.5602305482,1.4949124875\O,0,-0.37688767,1.
 1824320464,2.4845813681\C,0,3.5169982967,0.7473788537,-0.3394170628\C,
 0,4.3942693977,1.5327711145,-1.0804223736\C,0,4.0219007648,-0.49357167

 Normal termination of Gaussian 16 at Mon Dec  2 12:30:16 2024.
