 Gaussian 16, Revision A.03,
 Gaussian 16:  ES64L-G16RevA.03 25-Dec-2016

 ----------------------------------------------------------------------
 # pop=nbo M062X/6-311g(d) scrf=(smd,solvent=generic,read) temperature=
 298.15 Geom=Check Guess=Read
 ----------------------------------------------------------------------

 ----------
 Reagente 1
 ----------
 Structure from the checkpoint file:  "CURCUMIN-Reag-1-M062X-6-311G-D-298-NBO.chk"
 Charge =  0 Multiplicity = 2

                         Standard orientation:
 ---------------------------------------------------------------------
 Center     Atomic      Atomic             Coordinates (Angstroms)
 Number     Number       Type             X           Y           Z
 ---------------------------------------------------------------------
      1          6           0        2.134380    1.358702    0.365389
      2          1           0        1.746860    2.216029   -0.178722
      3          6           0        1.398804    0.832674    1.371806
      4          1           0        1.729028   -0.032902    1.936700
      5          6           0        0.098120    1.363041    1.800923
      6          8           0       -0.505039    0.843429    2.720000
      7          6           0        3.417437    0.899720   -0.085375
      8          6           0        4.089422    1.574280   -1.083382
      9          6           0        4.059176   -0.311881    0.517026
     10          6           0        5.386226    1.234503   -1.472996
     11          1           0        3.610149    2.426846   -1.552485
     12          6           0        5.468302   -0.574840    0.110739
     13          1           0        3.957863   -0.356517    1.603881
     14          6           0        6.091414    0.184470   -0.848040
     15          1           0        5.884718    1.811363   -2.245179
     16          8           0        7.387465   -0.080077   -1.160987
     17          1           0        7.685902    0.523370   -1.852979
     18          8           0        5.967624   -1.636578    0.759332
     19          6           0        6.891490   -2.505874    0.089460
     20          1           0        7.897234   -2.092203    0.102404
     21          1           0        6.861392   -3.439571    0.646529
     22          1           0        6.568121   -2.675748   -0.938502
     23          6           0       -2.985804    1.036841    0.548283
     24          1           0       -2.652385    1.226743    1.565723
     25          6           0       -2.244655    1.490387   -0.475054
     26          1           0       -2.522544    1.312990   -1.509590
     27          6           0       -0.996044    2.253376   -0.318731
     28          8           0       -0.376285    2.622289   -1.296575
     29          6           0       -4.229661    0.275016    0.449665
     30          6           0       -4.853501   -0.149728    1.625279
     31          6           0       -4.835090   -0.044308   -0.776643
     32          6           0       -6.035837   -0.877879    1.586634
     33          1           0       -4.403461    0.085707    2.583819
     34          6           0       -6.008222   -0.769828   -0.828160
     35          1           0       -4.396156    0.259537   -1.720615
     36          6           0       -6.620181   -1.196849    0.366008
     37          1           0       -6.506303   -1.210051    2.507282
     38          8           0       -7.759666   -1.915609    0.253270
     39          1           0       -8.083083   -2.157268    1.130801
     40          8           0       -6.553089   -1.100457   -2.034881
     41          6           0       -7.728766   -0.357846   -2.355522
     42          1           0       -7.501670    0.711192   -2.405950
     43          1           0       -8.057306   -0.705571   -3.333414
     44          1           0       -8.518486   -0.533440   -1.622625
     45          6           0       -0.487667    2.579739    1.084740
     46          1           0       -1.299001    2.958382    1.705781
     47          1           0        0.266508    3.359987    0.981244
     48          8           0        2.556426   -2.118483    0.875011
     49          8           0        3.391867   -1.917700   -1.093770
     50          7           0        3.257447   -1.575097    0.056055
 ---------------------------------------------------------------------

 SCF Done:  E(UM062X) =  -1468.40902711     A.U. after    1 cycles

 The electronic state is 2-A.
 Alpha  occ. eigenvalues --  -19.66831 -19.66354 -19.66082 -19.65924 -19.65823
 Alpha  occ. eigenvalues --  -19.63396 -19.61009 -19.60978 -14.99436 -10.63308
 Alpha  occ. eigenvalues --  -10.63229 -10.62528 -10.61985 -10.61743 -10.61513
 Alpha  occ. eigenvalues --  -10.59936 -10.58235 -10.57317 -10.57247 -10.56535
 Alpha  occ. eigenvalues --  -10.56534 -10.56311 -10.56234 -10.55476 -10.55037
 Alpha  occ. eigenvalues --  -10.54799 -10.54731 -10.54571 -10.54358 -10.54122
 Alpha  occ. eigenvalues --   -1.37830  -1.21823  -1.20416  -1.19366  -1.19233
 Alpha  occ. eigenvalues --   -1.17337  -1.17091  -1.16660  -0.99421  -0.97257
 Alpha  occ. eigenvalues --   -0.92004  -0.90958  -0.90502  -0.87318  -0.85681
 Alpha  occ. eigenvalues --   -0.85009  -0.82544  -0.81004  -0.78668  -0.77858
 Alpha  occ. eigenvalues --   -0.74697  -0.73242  -0.71490  -0.70594  -0.67999
 Alpha  occ. eigenvalues --   -0.66675  -0.66020  -0.64283  -0.63359  -0.63232
 Alpha  occ. eigenvalues --   -0.62557  -0.60905  -0.60637  -0.59639  -0.58852
 Alpha  occ. eigenvalues --   -0.58664  -0.57348  -0.56536  -0.56052  -0.55453
 Alpha  occ. eigenvalues --   -0.54451  -0.54011  -0.53005  -0.52786  -0.52086
 Alpha  occ. eigenvalues --   -0.51948  -0.50736  -0.50537  -0.50077  -0.49773
 Alpha  occ. eigenvalues --   -0.49189  -0.48784  -0.48406  -0.46935  -0.46581
 Alpha  occ. eigenvalues --   -0.46061  -0.44890  -0.44561  -0.44219  -0.43772
 Alpha  occ. eigenvalues --   -0.43371  -0.43211  -0.43003  -0.42525  -0.41779
 Alpha  occ. eigenvalues --   -0.40369  -0.39499  -0.38697  -0.38548  -0.38341
 Alpha  occ. eigenvalues --   -0.35934  -0.35242  -0.34901  -0.33675  -0.31889
 Alpha  occ. eigenvalues --   -0.30700  -0.28737  -0.26756  -0.23465
 Alpha virt. eigenvalues --   -0.04283  -0.02855  -0.01361   0.02334   0.04401
 Alpha virt. eigenvalues --    0.05617   0.07050   0.07487   0.09345   0.09790
 Alpha virt. eigenvalues --    0.10009   0.10208   0.10430   0.11258   0.11586

  Beta  occ. eigenvalues --  -19.66625 -19.66329 -19.66068 -19.65978 -19.65823
  Beta  occ. eigenvalues --  -19.63396 -19.61008 -19.60864 -14.99267 -10.63308
  Beta  occ. eigenvalues --  -10.63250 -10.62278 -10.62090 -10.61792 -10.61513
  Beta  occ. eigenvalues --  -10.59936 -10.58233 -10.57247 -10.57123 -10.56604
  Beta  occ. eigenvalues --  -10.56356 -10.56311 -10.56265 -10.55476 -10.55037
  Beta  occ. eigenvalues --  -10.54799 -10.54731 -10.54460 -10.54358 -10.54122
  Beta  occ. eigenvalues --   -1.37622  -1.21418  -1.20416  -1.19284  -1.19100
  Beta  occ. eigenvalues --   -1.17337  -1.16984  -1.16466  -0.98884  -0.97257
  Beta  occ. eigenvalues --   -0.91717  -0.90876  -0.89955  -0.87075  -0.85678
  Beta  occ. eigenvalues --   -0.84822  -0.82435  -0.80752  -0.77895  -0.77858
  Beta  occ. eigenvalues --   -0.74687  -0.72915  -0.71211  -0.70554  -0.67691
  Beta  occ. eigenvalues --   -0.66673  -0.65771  -0.64140  -0.63283  -0.62823
  Beta  occ. eigenvalues --   -0.62349  -0.60653  -0.60446  -0.59345  -0.58766
  Beta  occ. eigenvalues --   -0.58625  -0.57206  -0.56172  -0.55789  -0.54695
  Beta  occ. eigenvalues --   -0.54443  -0.54010  -0.52786  -0.52658  -0.51959
  Beta  occ. eigenvalues --   -0.51609  -0.50725  -0.50335  -0.50029  -0.49641
  Beta  occ. eigenvalues --   -0.49129  -0.48584  -0.48371  -0.46703  -0.46297
  Beta  occ. eigenvalues --   -0.45761  -0.44745  -0.44417  -0.44145  -0.43668
  Beta  occ. eigenvalues --   -0.43192  -0.42882  -0.42552  -0.42369  -0.40987
  Beta  occ. eigenvalues --   -0.40352  -0.39021  -0.38493  -0.38429  -0.37621
  Beta  occ. eigenvalues --   -0.35283  -0.34927  -0.34316  -0.33485  -0.31748
  Beta  occ. eigenvalues --   -0.30700  -0.26832  -0.26751
  Beta virt. eigenvalues --   -0.09630  -0.03971  -0.02000  -0.00793   0.02341
  Beta virt. eigenvalues --    0.04989   0.06371   0.07073   0.07488   0.09381
  Beta virt. eigenvalues --    0.09972   0.10256   0.10373   0.10850   0.11379

 Mulliken charges and spin densities:
               1          2
     1  C   -0.227669  -0.124372
     2  H    0.283730   0.003512
     3  C   -0.360837   0.205584
     4  H    0.258564  -0.009667
     5  C    0.394467  -0.024634
     6  O   -0.361626   0.062742
     7  C    0.130664   0.333572
     8  C   -0.232188  -0.181410
     9  C   -0.463544  -0.042629
    10  C   -0.265729   0.442251
    11  H    0.272471   0.004949
    12  C    0.285125   0.377775
    13  H    0.348200   0.027245
    14  C    0.234779  -0.172065
    15  H    0.280867  -0.019231
    16  O   -0.611436  -0.012613
    17  H    0.446348   0.000048
    18  O   -0.358114   0.059258
    19  C   -0.494972  -0.002385
    20  H    0.255394   0.002785
    21  H    0.256838   0.001120
    22  H    0.250456   0.004083
    23  C   -0.223424   0.000344
    24  H    0.280376  -0.000250
    25  C   -0.366024   0.000072
    26  H    0.258416  -0.000022
    27  C    0.394947   0.000562
    28  O   -0.362895   0.000499
    29  C   -0.020012  -0.000002
    30  C   -0.243018   0.000046
    31  C   -0.233955   0.000017
    32  C   -0.282671  -0.000028
    33  H    0.263109   0.000002
    34  C    0.170838  -0.000016
    35  H    0.266265   0.000003
    36  C    0.242570   0.000057
    37  H    0.268822   0.000001
    38  O   -0.595405   0.000013
    39  H    0.441507  -0.000001
    40  O   -0.383603  -0.000000
    41  C   -0.502379   0.000000
    42  H    0.228238  -0.000000
    43  H    0.243021   0.000000
    44  H    0.245449  -0.000000
    45  C   -0.793862   0.000221
    46  H    0.307074  -0.000058
    47  H    0.306891  -0.000141
    48  O   -0.275649   0.009491
    49  O   -0.289641   0.007185
    50  N    0.333228   0.046087
 Sum of Mulliken charges =   0.00000   1.00000

 Dipole moment (field-independent basis, Debye):
    X=              2.6068    Y=              3.5016    Z=             -0.0915  Tot=              4.3664
 Quadrupole moment (field-independent basis, Debye-Ang):
   XX=            -75.4402   YY=           -173.9685   ZZ=           -171.9027
   XY=             10.3229   XZ=            -31.6931   YZ=             -7.9336

 Summary of Natural Population Analysis:

                                       Natural Population
                Natural  -----------------------------------------------
    Atom  No    Charge         Core      Valence    Rydberg      Total
 -----------------------------------------------------------------------
      C    1   -0.11973      0.99952     2.11201    0.00820     3.11973
      H    2    0.11593      0.00000     0.38185    0.00221     0.38407
      C    3   -0.07010      0.99951     2.06174    0.00885     3.07010
      H    4    0.10962      0.00000     0.38841    0.00197     0.39038
      C    5    0.27901      0.99964     1.70134    0.02002     2.72099
      O    6   -0.26323      0.99989     3.25829    0.00505     4.26323
      C    7    0.09909      0.99949     1.89314    0.00828     2.90091
      C    8   -0.14559      0.99953     2.13801    0.00804     3.14559
      C    9   -0.08642      0.99947     2.07381    0.01314     3.08642
      C   10    0.07360      0.99956     1.91903    0.00781     2.92640
      H   11    0.11925      0.00000     0.37988    0.00087     0.38075
      C   12    0.33242      0.99941     1.65555    0.01262     2.66758
      H   13    0.14629      0.00000     0.35233    0.00138     0.35371
      C   14    0.06742      0.99934     1.92255    0.01069     2.93258
      H   15    0.10842      0.00000     0.39081    0.00077     0.39158
      O   16   -0.35390      0.99988     3.34923    0.00479     4.35390
      H   17    0.24356      0.00000     0.25573    0.00071     0.25644
      O   18   -0.23740      0.99985     3.23187    0.00567     4.23740
      C   19   -0.09595      0.99960     2.08808    0.00826     3.09595
      H   20    0.09494      0.00000     0.40438    0.00068     0.40506
      H   21    0.09486      0.00000     0.40474    0.00040     0.40514
      H   22    0.09172      0.00000     0.40748    0.00080     0.40828
      C   23   -0.05732      0.99953     2.04971    0.00809     3.05732
      H   24    0.11041      0.00000     0.38737    0.00222     0.38959
      C   25   -0.15913      0.99950     2.15058    0.00906     3.15913
      H   26    0.11062      0.00000     0.38773    0.00165     0.38938
      C   27    0.28971      0.99964     1.69066    0.01999     2.71029
      O   28   -0.29537      0.99989     3.29031    0.00517     4.29537
      C   29   -0.06129      0.99950     2.05402    0.00776     3.06129
      C   30   -0.08329      0.99955     2.07613    0.00760     3.08329
      C   31   -0.10542      0.99950     2.09830    0.00762     3.10542
      C   32   -0.14486      0.99954     2.13738    0.00794     3.14486
      H   33    0.11293      0.00000     0.38620    0.00087     0.38707
      C   34    0.13451      0.99935     1.85406    0.01208     2.86549
      H   35    0.11670      0.00000     0.38201    0.00129     0.38330
      C   36    0.15894      0.99937     1.83057    0.01111     2.84106
      H   37    0.11464      0.00000     0.38420    0.00116     0.38536
      O   38   -0.34114      0.99988     3.33648    0.00479     4.34114
      H   39    0.24249      0.00000     0.25694    0.00057     0.25751
      O   40   -0.28697      0.99987     3.28105    0.00605     4.28697
      C   41   -0.09686      0.99961     2.08881    0.00844     3.09686
      H   42    0.08287      0.00000     0.41624    0.00089     0.41713
      H   43    0.09277      0.00000     0.40675    0.00047     0.40723
      H   44    0.08736      0.00000     0.41174    0.00091     0.41264
      C   45   -0.28953      0.99957     2.28237    0.00758     3.28953
      H   46    0.12283      0.00000     0.37624    0.00093     0.37717
      H   47    0.12246      0.00000     0.37661    0.00093     0.37754
      O   48   -0.19507      0.99989     3.18776    0.00743     4.19507
      O   49   -0.19958      0.99989     3.19227    0.00742     4.19958
      N   50    0.31276      0.99979     2.15538    0.03207     3.18724
 =======================================================================
   * Total *    0.50000     29.98856    77.69813    0.31330   108.00000

 1\1\GINC-N02\SP\UM062X\6-311G(d)\C21H20N1O8(2)\UNKNOWN\02-Dec-2024\0\\
 # pop=nbo M062X/6-311g(d) scrf=(smd,solvent=generic,read) temperature=
 298.15 Geom=Check Guess=Read\\Reagente 1\\0,2\C,0,2.1101179359,1.13086
 52174,0.92704883\H,0,1.7117982516,2.1305732392,0.7748522286\C,0,1.3817
 934093,0.2341708894,1.6314161877\H,0,1.7229377153,-0.7821454584,1.7990
 417969\C,0,0.0751370748,0.5306110273,2.2330658671\O,0,-0.520930232,-0.
 3233582128,2.8607126384\C,0,3.398266202,0.9082568769,0.334421402\C,0,4
 .0612126146,1.9366356862,-0.3024078883\C,0,4.0551227286,-0.4360805272,

 Normal termination of Gaussian 16 at Mon Dec  2 12:43:24 2024.
