 Gaussian 16, Revision A.03,
 Gaussian 16:  ES64L-G16RevA.03 25-Dec-2016

 ----------------------------------------------------------------------
 # pop=nbo M062X/6-311g(d) scrf=(smd,solvent=generic,read) temperature=
 363.15
 ----------------------------------------------------------------------

 ----------
 Reagente 1
 ----------
 Symbolic Z-matrix:
 Charge =  0 Multiplicity = 2

                         Standard orientation:
 ---------------------------------------------------------------------
 Center     Atomic      Atomic             Coordinates (Angstroms)
 Number     Number       Type             X           Y           Z
 ---------------------------------------------------------------------
      1          6           0        2.171164    1.304693    0.443851
      2          1           0        1.803269    2.247282    0.047782
      3          6           0        1.459923    0.669425    1.383926
      4          1           0        1.789602   -0.252754    1.852999
      5          6           0        0.168990    1.163253    1.908970
      6          8           0       -0.415538    0.533023    2.763964
      7          6           0        3.463577    0.893451   -0.114721
      8          6           0        4.323383    1.877681   -0.608559
      9          6           0        3.945704   -0.418877   -0.166253
     10          6           0        5.585216    1.571517   -1.098596
     11          1           0        3.994543    2.910568   -0.596195
     12          6           0        5.189547   -0.768635   -0.661268
     13          1           0        4.966436   -1.041929    5.350106
     14          6           0        6.030094    0.254658   -1.129476
     15          1           0        6.229624    2.360814   -1.472924
     16          8           0        7.229117   -0.123724   -1.613413
     17          1           0        7.722093    0.647547   -1.923485
     18          8           0        5.537363   -2.074514   -0.751736
     19          6           0        6.511875   -2.485750    0.217619
     20          1           0        6.130943   -2.313695    1.226052
     21          1           0        6.664391   -3.550830    0.057991
     22          1           0        7.451084   -1.951277    0.069150
     23          6           0       -2.910993    1.007235    0.656737
     24          1           0       -2.570316    1.062485    1.687841
     25          6           0       -2.185039    1.601672   -0.303806
     26          1           0       -2.474468    1.562077   -1.349590
     27          6           0       -0.937961    2.341944   -0.059606
     28          8           0       -0.332066    2.849897   -0.981669
     29          6           0       -4.146473    0.250195    0.466315
     30          6           0       -4.750602   -0.343236    1.577347
     31          6           0       -4.758841    0.092748   -0.787658
     32          6           0       -5.920652   -1.080532    1.447400
     33          1           0       -4.294349   -0.234305    2.555491
     34          6           0       -5.920067   -0.639701   -0.929967
     35          1           0       -4.332956    0.531498   -1.683318
     36          6           0       -6.511969   -1.238343    0.199059
     37          1           0       -6.375861   -1.546638    2.316114
     38          8           0       -7.639962   -1.955412   -0.001952
     39          1           0       -7.949767   -2.322066    0.836284
     40          8           0       -6.470536   -0.811955   -2.166622
     41          6           0       -7.666641   -0.061135   -2.372640
     42          1           0       -7.466526    1.009408   -2.268678
     43          1           0       -7.992785   -0.272289   -3.389543
     44          1           0       -8.446602   -0.361224   -1.670414
     45          6           0       -0.408344    2.468129    1.369789
     46          1           0       -1.206308    2.771397    2.047349
     47          1           0        0.357100    3.244531    1.361072
     48          8           0        3.441202   -2.158680    1.246968
     49          8           0        2.136373   -1.805815   -0.426356
     50          7           0        3.103126   -1.555072    0.251665
 ---------------------------------------------------------------------

 SCF Done:  E(UM062X) =  -1466.44880027     A.U. after   15 cycles

 The electronic state is 2-A.
 Alpha  occ. eigenvalues --  -19.69009 -19.66838 -19.66049 -19.65711 -19.65435
 Alpha  occ. eigenvalues --  -19.65249 -19.61706 -19.60992 -15.03339 -10.65521
 Alpha  occ. eigenvalues --  -10.65223 -10.65037 -10.63479 -10.63304 -10.63092
 Alpha  occ. eigenvalues --  -10.62954 -10.58753 -10.58560 -10.58497 -10.58474
 Alpha  occ. eigenvalues --  -10.58225 -10.58053 -10.57672 -10.57509 -10.57266
 Alpha  occ. eigenvalues --  -10.57149 -10.56610 -10.56335 -10.56274 -10.56199
 Alpha  occ. eigenvalues --   -1.39147  -1.23308  -1.21803  -1.20034  -1.19417
 Alpha  occ. eigenvalues --   -1.19089  -1.18280  -1.17593  -1.00870  -0.99981
 Alpha  occ. eigenvalues --   -0.93625  -0.92709  -0.91821  -0.88617  -0.87993
 Alpha  occ. eigenvalues --   -0.86558  -0.84278  -0.81423  -0.79502  -0.78746
 Alpha  occ. eigenvalues --   -0.77152  -0.74847  -0.73081  -0.71094  -0.70145
 Alpha  occ. eigenvalues --   -0.68916  -0.66763  -0.66163  -0.65491  -0.63946
 Alpha  occ. eigenvalues --   -0.61860  -0.61524  -0.60631  -0.60555  -0.60303
 Alpha  occ. eigenvalues --   -0.59341  -0.58471  -0.57663  -0.56524  -0.56074
 Alpha  occ. eigenvalues --   -0.55652  -0.55464  -0.54088  -0.53663  -0.52813
 Alpha  occ. eigenvalues --   -0.52750  -0.52139  -0.51517  -0.51246  -0.50773
 Alpha  occ. eigenvalues --   -0.50404  -0.49824  -0.48242  -0.48196  -0.46798
 Alpha  occ. eigenvalues --   -0.46709  -0.46202  -0.46072  -0.45605  -0.45102
 Alpha  occ. eigenvalues --   -0.44978  -0.44664  -0.43722  -0.42442  -0.42232
 Alpha  occ. eigenvalues --   -0.39690  -0.39461  -0.38870  -0.37536  -0.36802
 Alpha  occ. eigenvalues --   -0.36609  -0.35928  -0.34682  -0.32880  -0.32808
 Alpha  occ. eigenvalues --   -0.32505  -0.29549  -0.28529  -0.21203
 Alpha virt. eigenvalues --   -0.06266  -0.04834  -0.03098   0.00118   0.00757
 Alpha virt. eigenvalues --    0.02624   0.03970   0.06303   0.06993   0.08758
 Alpha virt. eigenvalues --    0.09009   0.09249   0.09628   0.10506   0.10893

  Beta  occ. eigenvalues --  -19.68885 -19.66838 -19.66049 -19.65711 -19.65414
  Beta  occ. eigenvalues --  -19.65249 -19.61670 -19.60992 -15.03339 -10.65528
  Beta  occ. eigenvalues --  -10.65183 -10.65037 -10.63479 -10.63304 -10.63071
  Beta  occ. eigenvalues --  -10.62954 -10.58750 -10.58563 -10.58474 -10.58459
  Beta  occ. eigenvalues --  -10.58225 -10.58053 -10.57660 -10.57503 -10.57273
  Beta  occ. eigenvalues --  -10.57105 -10.56610 -10.56335 -10.56273 -10.56199
  Beta  occ. eigenvalues --   -9.61109  -1.39147  -1.22958  -1.21803  -1.20034
  Beta  occ. eigenvalues --   -1.19307  -1.19089  -1.18184  -1.17576  -1.00870
  Beta  occ. eigenvalues --   -0.99743  -0.93447  -0.92659  -0.91820  -0.88496
  Beta  occ. eigenvalues --   -0.87919  -0.86398  -0.84164  -0.81419  -0.79437
  Beta  occ. eigenvalues --   -0.78745  -0.77009  -0.74840  -0.72938  -0.71091
  Beta  occ. eigenvalues --   -0.70145  -0.68767  -0.66763  -0.66074  -0.65417
  Beta  occ. eigenvalues --   -0.63895  -0.61793  -0.61522  -0.60544  -0.60522
  Beta  occ. eigenvalues --   -0.60272  -0.59305  -0.58442  -0.57622  -0.56389
  Beta  occ. eigenvalues --   -0.55649  -0.55606  -0.55462  -0.54034  -0.53575
  Beta  occ. eigenvalues --   -0.52787  -0.52676  -0.51747  -0.51428  -0.51062
  Beta  occ. eigenvalues --   -0.50672  -0.50150  -0.49814  -0.48145  -0.48039
  Beta  occ. eigenvalues --   -0.46720  -0.46636  -0.46069  -0.45655  -0.45588
  Beta  occ. eigenvalues --   -0.44933  -0.44625  -0.44546  -0.43625  -0.42441
  Beta  occ. eigenvalues --   -0.42072  -0.39688  -0.39460  -0.38869  -0.36831
  Beta  occ. eigenvalues --   -0.36615  -0.36222  -0.35856  -0.34607  -0.32768
  Beta  occ. eigenvalues --   -0.32629  -0.32503  -0.28528
  Beta virt. eigenvalues --   -0.24227  -0.05883  -0.04571  -0.03079   0.00706
  Beta virt. eigenvalues --    0.00756   0.03073   0.04275   0.06340   0.06990
  Beta virt. eigenvalues --    0.08766   0.09073   0.09368   0.09704   0.10625

 Mulliken charges and spin densities:
               1          2
     1  C   -0.211202   0.000245
     2  H    0.287426   0.000041
     3  C   -0.332353   0.000587
     4  H    0.260967   0.000178
     5  C    0.369056   0.001208
     6  O   -0.328302   0.000787
     7  C    0.098646  -0.000020
     8  C   -0.251091   0.000009
     9  C    0.069453  -0.000027
    10  C   -0.237669  -0.000001
    11  H    0.273116   0.000003
    12  C    0.220509   0.000027
    13  H   -0.998698  -0.001372
    14  C    0.244164  -0.000005
    15  H    0.279434   0.000000
    16  O   -0.587991  -0.000001
    17  H    0.449631   0.000000
    18  O   -0.378543   0.000046
    19  C   -0.513361   0.000571
    20  H    0.247783   0.000126
    21  H    0.252106   0.000004
    22  H    0.253783  -0.000004
    23  C   -0.206477  -0.019176
    24  H    0.295690  -0.000004
    25  C   -0.217128   0.214776
    26  H    0.278316  -0.003677
    27  C    0.380337  -0.010994
    28  O   -0.299089   0.050138
    29  C    0.126398   0.228558
    30  C   -0.156156   0.083827
    31  C   -0.200665  -0.009767
    32  C   -0.223441   0.042971
    33  H    0.283319  -0.001562
    34  C    0.237977   0.094331
    35  H    0.284028  -0.000048
    36  C    0.370098   0.190248
    37  H    0.290043  -0.001092
    38  O   -0.499370   0.116052
    39  H    0.457769  -0.001667
    40  O   -0.361072   0.019166
    41  C   -0.509691   0.003907
    42  H    0.238883   0.001078
    43  H    0.254067   0.000256
    44  H    0.252243  -0.000535
    45  C   -0.805053   0.000502
    46  H    0.317771   0.000082
    47  H    0.319999  -0.000017
    48  O   -0.248697   0.000106
    49  O   -0.241635   0.000060
    50  N    0.114674   0.000079
 Sum of Mulliken charges =  -0.00000   1.00000

 Dipole moment (field-independent basis, Debye):
    X=            -43.8333    Y=              9.8508    Z=            -23.4026  Tot=             50.6565
 Quadrupole moment (field-independent basis, Debye-Ang):
   XX=            -60.2918   YY=           -166.3932   ZZ=           -308.0596
   XY=             63.9935   XZ=           -154.3319   YZ=             17.4485

 Summary of Natural Population Analysis:

                                       Natural Population
                Natural  -----------------------------------------------
    Atom  No    Charge         Core      Valence    Rydberg      Total
 -----------------------------------------------------------------------
      C    1   -0.06490      0.99953     2.05733    0.00804     3.06490
      H    2    0.11621      0.00000     0.38173    0.00206     0.38379
      C    3   -0.14992      0.99949     2.14090    0.00952     3.14992
      H    4    0.11225      0.00000     0.38549    0.00225     0.38775
      C    5    0.28381      0.99965     1.69649    0.02005     2.71619
      O    6   -0.27790      0.99989     3.27285    0.00516     4.27790
      C    7   -0.05646      0.99946     2.04898    0.00802     3.05646
      C    8   -0.07100      0.99955     2.06390    0.00755     3.07100
      C    9    0.02946      0.99932     1.95927    0.01194     2.97054
      C   10   -0.13343      0.99954     2.12601    0.00787     3.13343
      H   11    0.11765      0.00000     0.38156    0.00079     0.38235
      C   12    0.13725      0.99932     1.85114    0.01229     2.86275
      H   13   -0.49999      0.00000     0.64404    0.35595     0.99999
      C   14    0.16562      0.99938     1.82385    0.01115     2.83438
      H   15    0.11925      0.00000     0.37999    0.00076     0.38075
      O   16   -0.33624      0.99988     3.33162    0.00474     4.33624
      H   17    0.24538      0.00000     0.25396    0.00066     0.25462
      O   18   -0.28258      0.99986     3.27696    0.00576     4.28258
      C   19   -0.09976      0.99960     2.09172    0.00845     3.09976
      H   20    0.09040      0.00000     0.40868    0.00092     0.40960
      H   21    0.09623      0.00000     0.40334    0.00043     0.40377
      H   22    0.08984      0.00000     0.40936    0.00080     0.41016
      C   23   -0.07109      0.99952     2.06355    0.00802     3.07109
      H   24    0.11515      0.00000     0.38266    0.00219     0.38485
      C   25    0.04095      0.99950     1.95110    0.00845     2.95905
      H   26    0.11008      0.00000     0.38835    0.00157     0.38992
      C   27    0.27323      0.99965     1.70753    0.01959     2.72677
      O   28   -0.23558      0.99989     3.23068    0.00501     4.23558
      C   29    0.15919      0.99950     1.83395    0.00736     2.84081
      C   30   -0.00267      0.99954     1.99553    0.00760     3.00267
      C   31   -0.11155      0.99949     2.10428    0.00778     3.11155
      C   32   -0.10123      0.99954     2.09386    0.00783     3.10123
      H   33    0.11682      0.00000     0.38238    0.00080     0.38318
      C   34    0.22123      0.99935     1.76785    0.01158     2.77877
      H   35    0.12240      0.00000     0.37641    0.00119     0.37760
      C   36    0.33285      0.99937     1.65724    0.01055     2.66715
      H   37    0.12016      0.00000     0.37878    0.00106     0.37984
      O   38   -0.23042      0.99988     3.22643    0.00411     4.23042
      H   39    0.24771      0.00000     0.25175    0.00054     0.25229
      O   40   -0.26533      0.99986     3.25967    0.00579     4.26533
      C   41   -0.09734      0.99960     2.08926    0.00847     3.09734
      H   42    0.08641      0.00000     0.41280    0.00079     0.41359
      H   43    0.09670      0.00000     0.40289    0.00040     0.40330
      H   44    0.08926      0.00000     0.40993    0.00081     0.41074
      C   45   -0.29443      0.99957     2.28724    0.00761     3.29443
      H   46    0.12661      0.00000     0.37247    0.00091     0.37339
      H   47    0.12732      0.00000     0.37183    0.00085     0.37268
      O   48   -0.18772      0.99990     3.18026    0.00757     4.18772
      O   49   -0.17675      0.99989     3.16928    0.00758     4.17675
      N   50    0.25686      0.99971     2.21339    0.03004     3.24314
 =======================================================================
   * Total *    0.50000     29.98821    77.35054    0.66125   108.00000

 1\1\GINC-N11\SP\UM062X\6-311G(d)\C21H20N1O8(2)\UNKNOWN\04-Dec-2024\0\\
 # pop=nbo M062X/6-311g(d) scrf=(smd,solvent=generic,read) temperature=
 363.15\\Reagente 1\\0,2\C,0,2.171164,1.304693,0.443851\H,0,1.803269,2.
 247282,0.047782\C,0,1.459923,0.669425,1.383926\H,0,1.789602,-0.252754,
 1.852999\C,0,0.16899,1.163253,1.90897\O,0,-0.415538,0.533023,2.763964\
 C,0,3.463577,0.893451,-0.114721\C,0,4.323383,1.877681,-0.608559\C,0,3.
 945704,-0.418877,-0.166253\C,0,5.585216,1.571517,-1.098596\H,0,3.99454
 3,2.910568,-0.596195\C,0,5.189547,-0.768635,-0.661268\H,0,4.966436,-1.

 Normal termination of Gaussian 16 at Wed Dec  4 16:12:57 2024.
