 Gaussian 16, Revision A.03,
 Gaussian 16:  ES64L-G16RevA.03 25-Dec-2016

 ----------------------------------------------------------------------
 # pop=nbo M062X/6-311g(d) scrf=(smd,solvent=generic,read) temperature=
 363.15 Geom=Check Guess=Read
 ----------------------------------------------------------------------

 ----------
 Reagente 1
 ----------
 Structure from the checkpoint file:  "CURCUMIN-Reag-1-M062X-6-311G-D-363-NBO.chk"
 Charge =  0 Multiplicity = 2

                         Standard orientation:
 ---------------------------------------------------------------------
 Center     Atomic      Atomic             Coordinates (Angstroms)
 Number     Number       Type             X           Y           Z
 ---------------------------------------------------------------------
      1          6           0        2.136650    1.356628    0.366938
      2          1           0        1.748629    2.215147   -0.174961
      3          6           0        1.399942    0.825343    1.369831
      4          1           0        1.730504   -0.042242    1.931462
      5          6           0        0.097448    1.351631    1.798475
      6          8           0       -0.506798    0.827276    2.714118
      7          6           0        3.421069    0.900890   -0.083211
      8          6           0        4.093355    1.578530   -1.078895
      9          6           0        4.063571   -0.311195    0.517394
     10          6           0        5.390674    1.240593   -1.468480
     11          1           0        3.613606    2.431781   -1.546306
     12          6           0        5.473069   -0.572349    0.111226
     13          1           0        3.961751   -0.357545    1.604132
     14          6           0        6.095991    0.189339   -0.845837
     15          1           0        5.889322    1.819435   -2.239100
     16          8           0        7.392121   -0.074137   -1.159239
     17          1           0        7.690445    0.530940   -1.849852
     18          8           0        5.972852   -1.635126    0.757730
     19          6           0        6.897808   -2.502173    0.086388
     20          1           0        7.903017   -2.087218    0.100141
     21          1           0        6.868770   -3.436949    0.641701
     22          1           0        6.574598   -2.670528   -0.941889
     23          6           0       -2.988889    1.033352    0.549855
     24          1           0       -2.655091    1.222425    1.567294
     25          6           0       -2.247127    1.486291   -0.473332
     26          1           0       -2.525715    1.310222   -1.507920
     27          6           0       -0.997669    2.247708   -0.316506
     28          8           0       -0.378105    2.618035   -1.293949
     29          6           0       -4.234415    0.274386    0.451004
     30          6           0       -4.862441   -0.144214    1.626610
     31          6           0       -4.837613   -0.047689   -0.775698
     32          6           0       -6.047597   -0.867761    1.587655
     33          1           0       -4.414082    0.093355    2.585422
     34          6           0       -6.013039   -0.769463   -0.827579
     35          1           0       -4.394936    0.250778   -1.719636
     36          6           0       -6.630163   -1.188595    0.366701
     37          1           0       -6.521973   -1.194784    2.508187
     38          8           0       -7.772939   -1.901899    0.253878
     39          1           0       -8.099510   -2.138968    1.131491
     40          8           0       -6.554923   -1.104585   -2.034456
     41          6           0       -7.726920   -0.359775   -2.363456
     42          1           0       -7.496490    0.708405   -2.416894
     43          1           0       -8.051815   -0.710309   -3.341562
     44          1           0       -8.520632   -0.530295   -1.633707
     45          6           0       -0.488345    2.571020    1.087217
     46          1           0       -1.298654    2.948166    1.710571
     47          1           0        0.265956    3.351253    0.985153
     48          8           0        2.567133   -2.123328    0.873294
     49          8           0        3.395195   -1.912121   -1.097563
     50          7           0        3.263408   -1.574423    0.053996
 ---------------------------------------------------------------------

 SCF Done:  E(UM062X) =  -1468.40902725     A.U. after    1 cycles

 The electronic state is 2-A.
 Alpha  occ. eigenvalues --  -19.66833 -19.66356 -19.66084 -19.65924 -19.65823
 Alpha  occ. eigenvalues --  -19.63397 -19.61006 -19.60977 -14.99438 -10.63305
 Alpha  occ. eigenvalues --  -10.63227 -10.62531 -10.61986 -10.61742 -10.61512
 Alpha  occ. eigenvalues --  -10.59936 -10.58236 -10.57315 -10.57246 -10.56538
 Alpha  occ. eigenvalues --  -10.56535 -10.56308 -10.56235 -10.55475 -10.55038
 Alpha  occ. eigenvalues --  -10.54799 -10.54731 -10.54574 -10.54355 -10.54119
 Alpha  occ. eigenvalues --   -1.37833  -1.21826  -1.20420  -1.19369  -1.19238
 Alpha  occ. eigenvalues --   -1.17335  -1.17090  -1.16657  -0.99422  -0.97257
 Alpha  occ. eigenvalues --   -0.92006  -0.90958  -0.90504  -0.87320  -0.85682
 Alpha  occ. eigenvalues --   -0.85009  -0.82544  -0.81006  -0.78669  -0.77857
 Alpha  occ. eigenvalues --   -0.74697  -0.73243  -0.71492  -0.70595  -0.68002
 Alpha  occ. eigenvalues --   -0.66674  -0.66021  -0.64285  -0.63361  -0.63229
 Alpha  occ. eigenvalues --   -0.62556  -0.60907  -0.60637  -0.59637  -0.58852
 Alpha  occ. eigenvalues --   -0.58662  -0.57352  -0.56536  -0.56053  -0.55455
 Alpha  occ. eigenvalues --   -0.54450  -0.54011  -0.53007  -0.52795  -0.52090
 Alpha  occ. eigenvalues --   -0.51947  -0.50735  -0.50536  -0.50076  -0.49774
 Alpha  occ. eigenvalues --   -0.49192  -0.48786  -0.48408  -0.46923  -0.46582
 Alpha  occ. eigenvalues --   -0.46064  -0.44889  -0.44557  -0.44219  -0.43770
 Alpha  occ. eigenvalues --   -0.43374  -0.43214  -0.43003  -0.42522  -0.41783
 Alpha  occ. eigenvalues --   -0.40369  -0.39503  -0.38696  -0.38548  -0.38342
 Alpha  occ. eigenvalues --   -0.35938  -0.35241  -0.34899  -0.33672  -0.31888
 Alpha  occ. eigenvalues --   -0.30701  -0.28738  -0.26755  -0.23466
 Alpha virt. eigenvalues --   -0.04288  -0.02855  -0.01359   0.02333   0.04398
 Alpha virt. eigenvalues --    0.05627   0.07050   0.07487   0.09344   0.09794
 Alpha virt. eigenvalues --    0.10005   0.10207   0.10429   0.11260   0.11589

  Beta  occ. eigenvalues --  -19.66627 -19.66331 -19.66071 -19.65978 -19.65823
  Beta  occ. eigenvalues --  -19.63397 -19.61005 -19.60863 -14.99269 -10.63305
  Beta  occ. eigenvalues --  -10.63248 -10.62281 -10.62091 -10.61791 -10.61512
  Beta  occ. eigenvalues --  -10.59936 -10.58234 -10.57246 -10.57121 -10.56607
  Beta  occ. eigenvalues --  -10.56357 -10.56308 -10.56266 -10.55475 -10.55038
  Beta  occ. eigenvalues --  -10.54799 -10.54731 -10.54463 -10.54356 -10.54119
  Beta  occ. eigenvalues --   -1.37626  -1.21421  -1.20420  -1.19286  -1.19105
  Beta  occ. eigenvalues --   -1.17335  -1.16982  -1.16464  -0.98885  -0.97257
  Beta  occ. eigenvalues --   -0.91718  -0.90877  -0.89957  -0.87076  -0.85679
  Beta  occ. eigenvalues --   -0.84822  -0.82435  -0.80753  -0.77896  -0.77857
  Beta  occ. eigenvalues --   -0.74687  -0.72916  -0.71213  -0.70555  -0.67695
  Beta  occ. eigenvalues --   -0.66672  -0.65772  -0.64142  -0.63285  -0.62818
  Beta  occ. eigenvalues --   -0.62350  -0.60656  -0.60446  -0.59343  -0.58766
  Beta  occ. eigenvalues --   -0.58623  -0.57210  -0.56173  -0.55789  -0.54697
  Beta  occ. eigenvalues --   -0.54442  -0.54010  -0.52789  -0.52667  -0.51958
  Beta  occ. eigenvalues --   -0.51613  -0.50725  -0.50334  -0.50028  -0.49643
  Beta  occ. eigenvalues --   -0.49132  -0.48586  -0.48372  -0.46694  -0.46292
  Beta  occ. eigenvalues --   -0.45764  -0.44743  -0.44416  -0.44145  -0.43666
  Beta  occ. eigenvalues --   -0.43198  -0.42882  -0.42552  -0.42368  -0.40989
  Beta  occ. eigenvalues --   -0.40353  -0.39024  -0.38496  -0.38428  -0.37622
  Beta  occ. eigenvalues --   -0.35283  -0.34926  -0.34318  -0.33482  -0.31747
  Beta  occ. eigenvalues --   -0.30701  -0.26833  -0.26750
  Beta virt. eigenvalues --   -0.09629  -0.03973  -0.02005  -0.00790   0.02340
  Beta virt. eigenvalues --    0.04990   0.06377   0.07073   0.07488   0.09380
  Beta virt. eigenvalues --    0.09968   0.10255   0.10373   0.10854   0.11381

 Mulliken charges and spin densities:
               1          2
     1  C   -0.227157  -0.124275
     2  H    0.283532   0.003504
     3  C   -0.361257   0.205499
     4  H    0.258641  -0.009659
     5  C    0.394441  -0.024642
     6  O   -0.361492   0.062702
     7  C    0.130420   0.333469
     8  C   -0.232125  -0.181407
     9  C   -0.463569  -0.042581
    10  C   -0.265785   0.442336
    11  H    0.272458   0.004946
    12  C    0.285071   0.377917
    13  H    0.348171   0.027258
    14  C    0.234913  -0.172116
    15  H    0.280870  -0.019233
    16  O   -0.611449  -0.012618
    17  H    0.446358   0.000048
    18  O   -0.358123   0.059290
    19  C   -0.494977  -0.002383
    20  H    0.255426   0.002787
    21  H    0.256855   0.001119
    22  H    0.250470   0.004083
    23  C   -0.223244   0.000328
    24  H    0.280281  -0.000249
    25  C   -0.366271   0.000085
    26  H    0.258383  -0.000022
    27  C    0.395133   0.000555
    28  O   -0.362853   0.000512
    29  C   -0.020007   0.000001
    30  C   -0.243010   0.000042
    31  C   -0.233946   0.000014
    32  C   -0.282722  -0.000027
    33  H    0.263095   0.000003
    34  C    0.170678  -0.000014
    35  H    0.266293   0.000003
    36  C    0.242899   0.000054
    37  H    0.268808   0.000001
    38  O   -0.595408   0.000012
    39  H    0.441519  -0.000001
    40  O   -0.383648  -0.000000
    41  C   -0.502402   0.000000
    42  H    0.228224  -0.000000
    43  H    0.243016   0.000000
    44  H    0.245487  -0.000000
    45  C   -0.794091   0.000223
    46  H    0.307170  -0.000057
    47  H    0.306898  -0.000139
    48  O   -0.275534   0.009449
    49  O   -0.289577   0.007159
    50  N    0.333139   0.046023
 Sum of Mulliken charges =  -0.00000   1.00000

 Dipole moment (field-independent basis, Debye):
    X=              2.6022    Y=              3.5438    Z=             -0.0835  Tot=              4.3974
 Quadrupole moment (field-independent basis, Debye-Ang):
   XX=            -75.2138   YY=           -174.0361   ZZ=           -171.8249
   XY=             10.2926   XZ=            -31.6854   YZ=             -7.8007

 Summary of Natural Population Analysis:

                                       Natural Population
                Natural  -----------------------------------------------
    Atom  No    Charge         Core      Valence    Rydberg      Total
 -----------------------------------------------------------------------
      C    1   -0.11966      0.99952     2.11194    0.00820     3.11966
      H    2    0.11592      0.00000     0.38186    0.00221     0.38408
      C    3   -0.07019      0.99951     2.06183    0.00885     3.07019
      H    4    0.10961      0.00000     0.38842    0.00197     0.39039
      C    5    0.27900      0.99964     1.70134    0.02003     2.72100
      O    6   -0.26324      0.99989     3.25830    0.00505     4.26324
      C    7    0.09904      0.99949     1.89319    0.00828     2.90096
      C    8   -0.14555      0.99953     2.13798    0.00804     3.14555
      C    9   -0.08642      0.99947     2.07382    0.01314     3.08642
      C   10    0.07361      0.99956     1.91902    0.00781     2.92639
      H   11    0.11924      0.00000     0.37988    0.00087     0.38076
      C   12    0.33249      0.99941     1.65549    0.01261     2.66751
      H   13    0.14632      0.00000     0.35231    0.00138     0.35368
      C   14    0.06739      0.99934     1.92257    0.01069     2.93261
      H   15    0.10842      0.00000     0.39081    0.00077     0.39158
      O   16   -0.35391      0.99988     3.34924    0.00479     4.35391
      H   17    0.24356      0.00000     0.25573    0.00071     0.25644
      O   18   -0.23737      0.99985     3.23184    0.00567     4.23737
      C   19   -0.09595      0.99960     2.08808    0.00826     3.09595
      H   20    0.09496      0.00000     0.40437    0.00068     0.40504
      H   21    0.09487      0.00000     0.40473    0.00040     0.40513
      H   22    0.09171      0.00000     0.40749    0.00080     0.40829
      C   23   -0.05730      0.99953     2.04968    0.00809     3.05730
      H   24    0.11043      0.00000     0.38735    0.00222     0.38957
      C   25   -0.15917      0.99950     2.15061    0.00906     3.15917
      H   26    0.11061      0.00000     0.38774    0.00165     0.38939
      C   27    0.28968      0.99964     1.69068    0.02000     2.71032
      O   28   -0.29536      0.99989     3.29030    0.00517     4.29536
      C   29   -0.06131      0.99950     2.05405    0.00776     3.06131
      C   30   -0.08327      0.99955     2.07612    0.00760     3.08327
      C   31   -0.10539      0.99950     2.09827    0.00762     3.10539
      C   32   -0.14487      0.99954     2.13739    0.00794     3.14487
      H   33    0.11293      0.00000     0.38621    0.00087     0.38707
      C   34    0.13450      0.99935     1.85407    0.01208     2.86550
      H   35    0.11670      0.00000     0.38201    0.00129     0.38330
      C   36    0.15896      0.99937     1.83055    0.01111     2.84104
      H   37    0.11464      0.00000     0.38420    0.00116     0.38536
      O   38   -0.34114      0.99988     3.33647    0.00479     4.34114
      H   39    0.24249      0.00000     0.25694    0.00057     0.25751
      O   40   -0.28697      0.99987     3.28106    0.00605     4.28697
      C   41   -0.09687      0.99961     2.08882    0.00844     3.09687
      H   42    0.08287      0.00000     0.41623    0.00089     0.41713
      H   43    0.09277      0.00000     0.40676    0.00047     0.40723
      H   44    0.08738      0.00000     0.41172    0.00091     0.41262
      C   45   -0.28947      0.99957     2.28232    0.00758     3.28947
      H   46    0.12284      0.00000     0.37624    0.00093     0.37716
      H   47    0.12241      0.00000     0.37666    0.00093     0.37759
      O   48   -0.19509      0.99989     3.18777    0.00743     4.19509
      O   49   -0.19956      0.99989     3.19224    0.00742     4.19956
      N   50    0.31272      0.99979     2.15542    0.03207     3.18728
 =======================================================================
   * Total *    0.50000     29.98856    77.69813    0.31331   108.00000

 1\1\GINC-N02\SP\UM062X\6-311G(d)\C21H20N1O8(2)\UNKNOWN\02-Dec-2024\0\\
 # pop=nbo M062X/6-311g(d) scrf=(smd,solvent=generic,read) temperature=
 363.15 Geom=Check Guess=Read\\Reagente 1\\0,2\C,0,2.1126207165,1.12891
 73595,0.9260603023\H,0,1.7136494119,2.1286474145,0.775623994\C,0,1.383
 5100819,0.2293575446,1.6260501542\H,0,1.7251577963,-0.7872975957,1.790
 6536188\C,0,0.0752340205,0.522626466,2.2257270732\O,0,-0.5216072629,-0
 .3338266031,2.849211129\C,0,3.4019467772,0.9086596451,0.3351383956\C,0
 ,4.0648813846,1.9384387854,-0.2993871447\C,0,4.0597176307,-0.43526694,

 Normal termination of Gaussian 16 at Mon Dec  2 12:54:46 2024.
